ITEM: TIMESTEP
22000
ITEM: NUMBER OF ATOMS
4000
ITEM: BOX BOUNDS pp pp pp
-1.2660951296743868e+00 3.7566095129674245e+01
-1.2660951296743868e+00 3.7566095129674245e+01
-1.2660951296743868e+00 3.7566095129674245e+01
ITEM: ATOMS id type xs ys zs
3046 1 0.0535124 0.0659435 0.0030481
3329 1 0.0335376 0.0474672 0.0686713
1477 1 0.414164 0.43062 0.00131889
2146 1 0.0898773 0.0817933 0.0515169
1868 1 0.0317992 0.282583 0.0119945
2545 1 0.156918 0.0705732 0.0453654
128 1 0.188782 0.0138967 0.0370425
88 1 0.678824 0.458143 0.0283651
1987 1 0.539254 0.00382644 0.109259
809 1 0.29545 0.0301757 0.0870126
788 1 0.303137 0.0165753 0.02276
3848 1 0.362641 0.0334609 0.0581533
905 1 0.0735802 0.124985 0.0223239
1645 1 0.435612 0.0470911 0.0312313
3640 1 0.681789 0.133829 0.00839292
298 1 0.466991 0.0228309 0.073586
2252 1 0.406817 0.0652308 0.109402
3499 1 0.54864 0.0451224 0.0683741
357 1 0.102864 0.363835 0.0259965
3986 1 0.608652 0.0362956 0.0685396
802 1 0.66286 0.0110263 0.0358187
1677 1 0.623749 0.0447547 0.00977087
396 1 0.701533 0.0510319 0.098312
3724 1 0.672568 0.0753184 0.0533158
2349 1 0.799185 0.0121652 0.0519307
2115 1 0.328624 0.272115 0.019243
2752 1 0.708788 0.164572 0.192302
3817 1 0.890575 0.0163793 0.0543449
1659 1 0.95564 0.029221 0.0533297
158 1 0.982618 0.191528 0.0190578
3644 1 0.0404771 0.114088 0.0759215
823 1 0.994259 0.117871 0.122538
1657 1 0.0331421 0.172617 0.0582285
2074 1 0.0937824 0.102311 0.110116
120 1 0.134231 0.123647 0.0559363
2647 1 0.236 0.0607569 0.0679963
3900 1 0.188464 0.125874 0.0737158
640 1 0.14946 0.101406 0.126523
524 1 0.241878 0.112786 0.0195634
1953 1 0.53336 0.412141 0.0012649
1127 1 0.310402 0.0935348 0.0516272
2130 1 0.314865 0.141046 0.108143
310 1 0.375352 0.0928152 0.0460065
52 1 0.447807 0.10072 0.0361757
2002 1 0.41507 0.131721 0.0804903
110 1 0.469521 0.104139 0.116828
1379 1 0.501887 0.0856198 0.0627112
199 1 0.518557 0.149937 0.0994979
1639 1 0.554056 0.159983 0.0555543
2316 1 0.603222 0.118622 0.00641844
67 1 0.600297 0.156664 0.102464
1525 1 0.615685 0.0954918 0.068606
385 1 0.739203 0.104087 0.0653589
1894 1 0.692136 0.13962 0.0765131
2691 1 0.729439 0.129682 0.141511
2479 1 0.741523 0.153696 0.0087279
2027 1 0.785298 0.141789 0.102261
2438 1 0.827294 0.0838274 0.0989575
611 1 0.800172 0.112547 0.040141
517 1 0.916677 0.0815133 0.0304836
2539 1 0.905269 0.149698 0.0676348
1456 1 0.842535 0.0595191 0.042999
1049 1 0.952401 0.0957305 0.0723588
1880 1 0.997819 0.0863066 0.035853
204 1 0.909721 0.156155 0.0100943
1924 1 0.0590528 0.227474 0.0628864
2194 1 0.0986262 0.179821 0.087532
882 1 0.0490792 0.207094 0.00767028
1816 1 0.168527 0.18726 0.0674047
1514 1 0.160195 0.288836 0.0014362
755 1 0.146311 0.248327 0.0698202
3958 1 0.20784 0.237234 0.0153523
736 1 0.205512 0.176035 0.00903998
3956 1 0.307553 0.215699 0.0552032
2086 1 0.241331 0.183604 0.058414
3739 1 0.303748 0.15532 0.0382548
2388 1 0.352789 0.154341 0.0633574
2163 1 0.366416 0.206999 0.023
985 1 0.375201 0.251104 0.0776845
1795 1 0.357521 0.488479 0.151406
1187 1 0.4949 0.203443 0.0794254
24 1 0.488641 0.160528 0.0186083
3642 1 0.423941 0.208354 0.0421641
275 1 0.533846 0.216444 0.0302677
308 1 0.638828 0.163885 0.032997
1368 1 0.598462 0.212754 0.0658093
2407 1 0.673189 0.216329 0.087836
2431 1 0.728321 0.199443 0.0485032
3828 1 0.272555 0.302002 0.18675
959 1 0.79387 0.228576 0.0921954
750 1 0.783978 0.183632 0.0497743
534 1 0.813039 0.23506 0.017096
1828 1 0.844769 0.170857 0.0413769
969 1 0.86752 0.194125 0.117631
516 1 0.905821 0.247609 0.0878478
2769 1 0.861966 0.225405 0.0504566
815 1 0.971284 0.164656 0.0739806
5 1 0.167945 0.124074 0.008038
3779 1 0.927614 0.217142 0.0369254
1616 1 0.0936497 0.275624 0.086221
2283 1 0.0296359 0.301004 0.0761077
3361 1 0.0949621 0.301226 0.0317654
3436 1 0.25468 0.296143 0.0113179
2113 1 0.185928 0.354718 0.0107753
3153 1 0.199634 0.344774 0.0689442
1034 1 0.26529 0.253679 0.0613628
2253 1 0.889821 0.493501 0.11656
2822 1 0.314647 0.337061 0.0277948
2024 1 0.330206 0.298053 0.0786567
2623 1 0.37609 0.309597 0.0227513
2280 1 0.445883 0.290396 0.0510872
2021 1 0.510433 0.267166 0.0546591
305 1 0.478899 0.340626 0.0902372
367 1 0.538374 0.497194 0.172735
527 1 0.571452 0.285144 0.0647707
735 1 0.541267 0.344961 0.0328864
514 1 0.552001 0.340983 0.0949251
1141 1 0.659042 0.330054 0.0514175
768 1 0.645513 0.255375 0.0501506
344 1 0.612982 0.308337 0.102377
549 1 0.698966 0.284589 0.0605573
23 1 0.724113 0.301155 0.00721771
477 1 0.768548 0.295603 0.114147
125 1 0.755593 0.263518 0.0584444
689 1 0.809534 0.286412 0.0653095
3657 1 0.782338 0.290001 0.003031
2059 1 0.881892 0.308935 0.072838
242 1 0.968648 0.26219 0.0180594
2237 1 0.990914 0.232318 0.0708458
291 1 0.967554 0.298793 0.0736076
668 1 0.0814318 0.353694 0.0841742
3826 1 0.0315934 0.350958 0.0345954
1026 1 0.0490355 0.409741 0.0479346
3918 1 0.0243726 0.362092 0.0991172
450 1 0.145021 0.315261 0.0641348
18 1 0.111816 0.426218 0.069569
3741 1 0.593473 0.492269 0.000612396
642 1 0.27228 0.37518 0.0679221
2314 1 0.201094 0.450661 0.0768435
844 1 0.89918 0.264093 0.0202451
1756 1 0.312456 0.419954 0.0355518
1597 1 0.254827 0.325942 0.096296
3915 1 0.323406 0.409342 0.10022
1 1 0.415468 0.373538 0.0237619
257 1 0.375235 0.409455 0.0543903
1967 1 0.363815 0.350688 0.0696326
1800 1 0.475972 0.349196 0.0267933
1008 1 0.42582 0.379891 0.0849399
391 1 0.463487 0.417986 0.0375429
3487 1 0.546484 0.406877 0.0604299
1629 1 0.598757 0.367111 0.0659415
226 1 0.628013 0.432037 0.0448923
341 1 0.718914 0.385239 0.047961
2278 1 0.73001 0.400488 0.116089
984 1 0.751632 0.336176 0.0482033
276 1 0.821484 0.3432 0.0264224
343 1 0.777827 0.393334 0.028113
3103 1 0.886745 0.351692 0.0253928
861 1 0.856106 0.361979 0.0807617
44 1 0.933037 0.355736 0.070277
2036 1 0.757762 0.00153089 0.177513
3973 1 0.972806 0.385962 0.0074321
2155 1 0.824329 0.00685215 0.181901
1704 1 0.0237837 0.467475 0.0880474
1777 1 0.147787 0.465155 0.0449707
608 1 0.758708 0.477 0.0117969
1033 1 0.598759 0.37614 0.00282376
2077 1 0.076654 0.470711 0.0442934
1843 1 0.254354 0.440933 0.0386335
220 1 0.743364 0.0398139 0.0501748
2613 1 0.293484 0.480636 0.0541245
439 1 0.350412 0.461425 0.0846685
446 1 0.26314 0.435341 0.0974374
1468 1 0.355356 0.473289 0.0138495
1589 1 0.427704 0.454528 0.0644027
1873 1 0.502159 0.457497 0.0597365
2641 1 0.495823 0.140346 0.163549
3891 1 0.513214 0.047359 0.0124193
1610 1 0.125301 0.00284725 0.0884697
2825 1 0.350031 0.0304685 0.189244
779 1 0.658263 0.113867 0.198558
22 1 0.668608 0.43585 0.0971227
2323 1 0.564789 0.458415 0.0620043
205 1 0.731643 0.455428 0.0676343
2653 1 0.921919 0.362042 0.193962
241 1 0.420362 0.496482 0.176339
515 1 0.772947 0.451273 0.11966
3388 1 0.795693 0.469129 0.0617503
2536 1 0.863675 0.476428 0.0540851
707 1 0.865602 0.411852 0.0319773
1899 1 0.887244 0.432135 0.0886234
562 1 0.0963357 0.338805 0.186205
1462 1 0.35447 0.139407 -3.5633e-05
1834 1 0.943193 0.431969 0.0466878
403 1 0.980495 0.403783 0.0999754
1718 1 0.999268 0.443601 0.0153966
1612 1 0.415369 0.262046 0.0114218
3792 1 0.121185 0.0397788 0.145907
2499 1 0.0213155 0.4237 0.152776
424 1 0.603515 0.322567 0.0278047
3761 1 0.179741 0.044092 0.100148
100 1 0.229596 0.0343207 0.139049
2045 1 0.632003 0.00645007 0.149092
657 1 0.29283 0.0260947 0.152539
3062 1 0.183558 0.0552317 0.185638
3498 1 0.355893 0.0312992 0.120911
2802 1 0.941426 0.434306 0.155189
2243 1 0.253369 0.497779 0.0886634
485 1 0.464858 0.0119242 0.190271
3355 1 0.45321 0.0119541 0.131994
2277 1 0.409828 0.0563986 0.16961
1161 1 0.519866 0.0327856 0.18257
763 1 0.518976 0.0598629 0.128571
2222 1 0.585991 0.0512307 0.14248
2385 1 0.924841 0.49948 0.187461
3048 1 0.644561 0.0661517 0.172697
1147 1 0.698781 0.0117543 0.159901
218 1 0.462355 0.473233 -0.000968864
2669 1 0.799975 0.00484147 0.124193
338 1 0.763486 0.0812647 0.115127
1913 1 0.886035 0.0176858 0.115655
2632 1 0.825639 0.0569004 0.151047
2821 1 0.876334 0.0505154 0.185875
2041 1 0.880935 0.078984 0.087001
1579 1 1.00062 0.0480361 0.122818
1788 1 0.973382 0.0387079 0.000411245
11 1 0.984876 0.0389718 0.186043
104 1 0.966609 0.108031 0.18148
3302 1 0.948277 0.00668723 0.136065
572 1 0.0546705 0.0816455 0.145523
1997 1 0.0466321 0.144138 0.148995
373 1 0.129647 0.0912163 0.188394
2085 1 0.113665 0.162594 0.141475
1169 1 0.169777 0.174134 0.124278
771 1 0.169419 0.140184 0.17629
169 1 0.219688 0.102999 0.135328
145 1 0.240205 0.165412 0.154804
1053 1 0.284923 0.10394 0.177978
87 1 0.277016 0.0783407 0.125585
1842 1 0.257031 0.128305 0.0931383
593 1 0.356084 0.0974481 0.103757
2527 1 0.348082 0.0971473 0.167484
93 1 0.848336 0.374324 0.194126
1693 1 0.474694 0.072818 0.181659
17 1 0.428716 0.124441 0.164996
3387 1 0.535208 0.106565 0.198203
2414 1 0.551868 0.137528 0.148073
2066 1 0.855321 0.290447 0.0025514
2464 1 0.653227 0.0853289 0.119588
3101 1 0.605011 0.113434 0.147226
1934 1 0.0882413 0.0487448 0.197347
3280 1 0.717993 0.0692198 0.153273
1201 1 0.3029 0.478581 0.118779
323 1 0.789812 0.112753 0.171786
3777 1 0.873858 0.119286 0.133678
2168 1 0.845861 0.112963 0.194745
620 1 0.932952 0.141611 0.128571
3015 1 0.925014 0.069705 0.128787
2580 1 0.901273 0.118239 0.190113
901 1 0.0062312 0.207688 0.168223
447 1 0.0203271 0.183908 0.111368
900 1 0.0887017 0.230785 0.143136
1132 1 0.0706674 0.193033 0.190191
1166 1 0.162201 0.240671 0.137526
643 1 0.127784 0.221196 0.183091
2548 1 0.212332 0.215977 0.114001
558 1 0.188021 0.239175 0.190375
701 1 0.282023 0.201938 0.11035
674 1 0.311062 0.173535 0.175244
535 1 0.340851 0.209213 0.119804
568 1 0.422557 0.186189 0.182791
48 1 0.416458 0.246013 0.156315
1131 1 0.364499 0.150858 0.14598
705 1 0.365826 0.215608 0.190519
1946 1 0.47767 0.216373 0.157946
769 1 0.397559 0.195537 0.116439
722 1 0.437394 0.244671 0.101198
895 1 0.450221 0.166571 0.117493
86 1 0.538203 0.222099 0.112865
2773 1 0.538417 0.183232 0.190626
3293 1 0.648388 0.26264 0.174128
635 1 0.587008 0.219818 0.188454
3983 1 0.621068 0.180969 0.148354
228 1 0.604176 0.247259 0.121195
3759 1 0.956945 0.469781 0.0977465
3603 1 0.024033 0.0796445 0.194217
2387 1 0.665946 0.143262 0.138778
1904 1 0.694859 0.211881 0.154403
762 1 0.73507 0.184859 0.113273
146 1 0.742312 0.242174 0.187625
2195 1 0.82464 0.162545 0.149303
3795 1 0.799481 0.21799 0.147485
1031 1 0.878443 0.175717 0.173876
513 1 0.907032 0.237618 0.15657
497 1 0.306743 0.377528 0.194965
1752 1 0.947375 0.177262 0.187397
2994 1 0.94094 0.202806 0.110112
3278 1 0.021612 0.275464 0.198107
2452 1 0.0691092 0.317063 0.131891
284 1 0.194141 0.498084 0.111325
3496 1 0.126354 0.308294 0.123987
336 1 0.18568 0.301212 0.159097
1955 1 0.229732 0.269007 0.119431
1099 1 0.208755 0.275448 0.0548061
952 1 0.300387 0.264189 0.113041
765 1 0.302824 0.240579 0.17129
586 1 0.310604 0.314726 0.140835
1753 1 0.151422 0.211233 0.00588408
2678 1 0.362503 0.267306 0.14682
3662 1 0.419205 0.313754 0.104618
463 1 0.443217 0.299433 0.162258
2916 1 0.54476 0.304134 0.186002
1706 1 0.660317 0.392652 0.00862653
309 1 0.554234 0.274901 0.131174
499 1 0.496406 0.276458 0.110291
2043 1 0.51848 0.356574 0.170236
267 1 0.647828 0.325299 0.162882
1932 1 0.671515 0.300686 0.114533
1040 1 0.733216 0.250149 0.120423
2955 1 0.720714 0.333687 0.106169
2722 1 0.70507 0.299129 0.172187
745 1 0.790042 0.276601 0.171809
1042 1 0.791024 0.348231 0.100778
62 1 0.852591 0.253748 0.1125
3632 1 0.849725 0.299321 0.162418
661 1 0.923389 0.301353 0.121823
2448 1 0.960748 0.313093 0.182356
2090 1 0.0352884 0.244732 0.117007
2327 1 0.847406 0.418566 0.152652
2000 1 0.979488 0.258414 0.139241
2568 1 0.0355033 0.347044 0.180786
1774 1 0.0692897 0.398278 0.181594
1875 1 0.167478 0.357445 0.169354
3594 1 0.118652 0.375596 0.137626
2558 1 0.16183 0.394036 0.0694672
717 1 0.855141 0.229745 0.19035
1998 1 0.555306 0.431964 0.180234
2169 1 0.215121 0.387816 0.131213
1914 1 0.244265 0.339014 0.155869
2127 1 0.280116 0.392956 0.137273
1867 1 0.384841 0.412017 0.123917
790 1 0.378137 0.33072 0.147403
1699 1 0.382623 0.386286 0.17533
2190 1 0.449605 0.377599 0.148957
353 1 0.494707 0.416807 0.174194
175 1 0.481925 0.415417 0.103332
916 1 0.137274 0.285201 0.191036
102 1 0.586341 0.353864 0.154091
296 1 0.54578 0.397138 0.120855
1959 1 0.6541 0.372104 0.107185
111 1 0.633703 0.386503 0.175355
830 1 0.598106 0.428496 0.111065
1919 1 0.679006 0.424557 0.154022
587 1 0.701461 0.363244 0.160611
2664 1 0.783477 0.3998 0.15322
1723 1 0.766748 0.341151 0.177528
82 1 0.80715 0.410086 0.0835666
2680 1 0.85125 0.35573 0.138381
629 1 0.917721 0.37885 0.132839
623 1 0.986872 0.380419 0.165237
2717 1 0.996424 0.31895 0.133011
653 1 0.999139 0.488298 0.167402
2057 1 0.0626137 0.417123 0.109397
2242 1 0.0625064 0.483451 0.139968
229 1 0.118881 0.480316 0.110236
2475 1 0.10992 0.431973 0.157496
576 1 0.166417 0.41926 0.133369
155 1 0.21376 0.452856 0.144271
777 1 0.266952 0.437963 0.180655
983 1 0.303165 0.492899 0.182273
2149 1 0.330405 0.433303 0.166171
394 1 0.418937 0.151114 0.00768959
3211 1 0.894677 0.416135 0.194622
163 1 0.0611234 0.0144586 0.118777
1688 1 0.496292 0.477005 0.12725
435 1 0.435981 0.443166 0.129942
2694 1 0.601723 0.464036 0.164007
540 1 0.201618 0.427016 0.198611
3411 1 0.629288 0.488813 0.111729
331 1 0.657798 0.494217 0.177515
1890 1 0.750928 0.450154 0.181636
1640 1 0.712016 0.466545 0.130257
1697 1 0.798738 0.495223 0.155385
2310 1 0.833824 0.466407 0.110479
521 1 0.866968 0.475172 0.174003
1944 1 0.67654 0.219858 0.0171414
1578 1 0.53664 0.110628 0.0096476
787 1 0.376668 0.4556 0.198467
1798 1 0.197681 0.416127 0.00479355
1711 1 0.52845 0.481778 0.00226955
264 1 0.405818 0.00103691 0.0932066
3474 1 0.562748 0.0132746 0.00229338
785 1 0.0795836 0.044472 0.275192
1745 1 0.0320447 0.0249568 0.234634
3856 1 0.967027 0.440508 0.350143
2809 1 0.139314 0.0460641 0.241833
2174 1 0.651788 0.00167831 0.204967
910 1 0.199314 0.0421036 0.254174
3765 1 0.26469 0.0707979 0.251419
3119 1 0.245945 0.00472157 0.25099
798 1 0.0117237 0.0237896 0.392325
564 1 0.209667 0.105472 0.295506
126 1 0.299212 0.0281997 0.231858
672 1 0.329685 0.0860675 0.227903
3370 1 0.365312 0.140157 0.395406
509 1 0.310003 0.0558678 0.320497
1277 1 0.362285 0.0383916 0.266872
2766 1 0.433519 0.00806015 0.297127
479 1 0.419143 0.0716306 0.269514
2522 1 0.413939 0.0143921 0.221111
356 1 0.550524 0.0614591 0.232045
1458 1 0.475778 0.0508142 0.238788
176 1 0.535603 0.0435019 0.290821
1566 1 0.592038 0.067012 0.276927
2621 1 0.645569 0.0983527 0.309155
469 1 0.654162 0.0690533 0.241424
3476 1 0.749614 0.0107815 0.253553
617 1 0.71762 0.0626071 0.297766
122 1 0.703479 0.0381787 0.217194
864 1 0.325819 0.313936 0.228476
2890 1 0.66272 0.0334666 0.318614
307 1 0.771431 0.0615633 0.264657
3778 1 0.517233 0.0020659 0.237594
2020 1 0.0743496 0.121666 0.208115
2689 1 0.871725 0.113481 0.286323
1555 1 0.414341 0.090919 0.377585
1016 1 0.93155 0.0288619 0.293868
764 1 0.981654 0.0687653 0.245655
375 1 0.943793 0.0200536 0.22947
3919 1 0.894648 0.0656047 0.244183
679 1 0.991324 0.101552 0.303818
89 1 0.0300115 0.145454 0.322679
253 1 0.0372158 0.0977215 0.258019
935 1 0.167816 0.115766 0.236047
1626 1 0.0946675 0.156227 0.266229
3096 1 0.160151 0.17504 0.291065
2531 1 0.8707 0.489783 0.320436
2574 1 0.230577 0.106036 0.210124
1111 1 0.248506 0.139578 0.254216
97 1 0.315423 0.153435 0.237017
2134 1 0.354511 0.129297 0.269952
1422 1 0.376203 0.15476 0.208835
885 1 0.447597 0.137664 0.293473
2158 1 0.441261 0.11398 0.226412
2944 1 0.418622 0.166295 0.249105
65 1 0.501986 0.163875 0.285883
2781 1 0.543918 0.114359 0.272312
81 1 0.488431 0.0923041 0.283002
1038 1 0.502755 0.134003 0.236262
3732 1 0.634853 0.133344 0.25846
812 1 0.678148 0.180718 0.265641
1200 1 0.712211 0.250347 0.373139
134 1 0.633543 0.172414 0.304288
64 1 0.696689 0.115386 0.271666
740 1 0.727171 0.102018 0.218811
1052 1 0.74596 0.131341 0.332553
903 1 0.76686 0.123898 0.265597
714 1 0.826673 0.0503741 0.219859
2837 1 0.82167 0.108568 0.250844
2918 1 0.969284 0.131397 0.247488
1709 1 0.928063 0.099176 0.286918
2141 1 0.963504 0.187088 0.259146
1130 1 0.887765 0.147129 0.243575
1222 1 0.0793251 0.21105 0.25212
2579 1 0.0357998 0.157974 0.252085
2803 1 0.0741114 0.188283 0.331934
172 1 0.125042 0.165213 0.208677
259 1 0.14297 0.219623 0.246177
3204 1 0.19109 0.184274 0.224268
989 1 0.219928 0.205965 0.276303
921 1 0.254978 0.179974 0.216368
546 1 0.293127 0.187719 0.281835
246 1 0.311415 0.216956 0.232557
342 1 0.367345 0.19124 0.257369
57 1 0.423936 0.235137 0.219548
1607 1 0.317943 0.230185 0.315008
645 1 0.42491 0.265329 0.269764
2511 1 0.455495 0.208277 0.284896
428 1 0.249431 0.167003 0.38648
1448 1 0.470958 0.191117 0.222046
144 1 0.55044 0.194365 0.255349
1332 1 0.664064 0.179758 0.353198
1806 1 0.608239 0.219572 0.242882
340 1 0.586223 0.228617 0.306803
774 1 0.737349 0.201544 0.246869
2656 1 0.777438 0.182605 0.308017
1213 1 0.793115 0.226584 0.210671
3187 1 0.516667 0.375767 0.360505
598 1 0.850133 0.225655 0.264866
655 1 0.830407 0.16327 0.270615
508 1 0.929563 0.238962 0.28552
1871 1 0.0179544 0.227606 0.232436
827 1 0.903346 0.199647 0.22896
737 1 0.975355 0.263086 0.257053
597 1 0.0494963 0.262118 0.273065
1505 1 0.0551386 0.337726 0.289558
1063 1 0.98901 0.335366 0.288705
1684 1 0.579604 0.3707 0.205886
1508 1 0.108789 0.294665 0.264001
589 1 0.169992 0.275777 0.253795
1929 1 0.147179 0.308271 0.307797
2473 1 0.180761 0.244568 0.309428
841 1 0.809621 0.2528 0.363191
1153 1 0.24543 0.243285 0.219759
628 1 0.300226 0.283708 0.27569
2018 1 0.236856 0.292483 0.256228
251 1 0.360427 0.251073 0.254012
1244 1 0.823437 0.486243 0.266389
157 1 0.466214 0.283871 0.214402
1037 1 0.382503 0.315329 0.264227
2608 1 0.438216 0.322093 0.269518
354 1 0.550875 0.265062 0.24721
652 1 0.506233 0.313909 0.250342
2266 1 0.545304 0.286256 0.305458
3685 1 0.600721 0.283111 0.206291
660 1 0.620753 0.281555 0.269
800 1 0.660466 0.307963 0.218169
1587 1 0.692145 0.299342 0.271241
2592 1 0.684737 0.24217 0.221193
317 1 0.717361 0.338345 0.226747
301 1 0.800327 0.33416 0.223915
1810 1 0.778286 0.317758 0.295645
2563 1 0.825967 0.279584 0.236629
3591 1 0.75749 0.291938 0.229355
2750 1 0.142964 0.495987 0.356862
2037 1 0.876716 0.324234 0.219597
212 1 0.908308 0.271963 0.212752
235 1 0.884455 0.278592 0.271323
137 1 0.993872 0.324578 0.229463
2703 1 0.937677 0.323221 0.253194
2748 1 0.0230709 0.37783 0.25187
2010 1 0.060354 0.317067 0.233443
306 1 0.0863403 0.379636 0.234199
74 1 0.148347 0.336969 0.236315
567 1 0.136064 0.395473 0.200407
797 1 0.902015 0.462633 0.360859
319 1 0.130484 0.363544 0.290789
3722 1 0.238627 0.380477 0.204211
261 1 0.182527 0.384975 0.238413
1494 1 0.275258 0.34903 0.247004
3203 1 0.320953 0.341059 0.297894
2523 1 0.239142 0.3924 0.273476
2450 1 0.355764 0.367353 0.238582
596 1 0.361658 0.399296 0.307161
415 1 0.440054 0.39075 0.266945
1430 1 0.484279 0.415872 0.279228
2873 1 0.313509 0.0170907 0.395576
766 1 0.486807 0.37507 0.218894
92 1 0.547602 0.420814 0.251358
2838 1 0.569877 0.322853 0.250166
466 1 0.631817 0.440977 0.213269
45 1 0.655074 0.428585 0.281358
1363 1 0.655216 0.368655 0.228246
760 1 0.696822 0.385303 0.276179
55 1 0.162059 0.452366 0.398019
1771 1 0.758219 0.374645 0.27206
3614 1 0.795821 0.425164 0.268286
3626 1 0.835536 0.355296 0.276025
2192 1 0.774958 0.0598891 0.200555
1759 1 0.833842 0.175248 0.217551
167 1 0.886323 0.383163 0.243021
426 1 0.964375 0.378969 0.223405
2332 1 0.0385785 0.467646 0.281992
1633 1 0.213007 0.321833 0.210672
2182 1 0.917073 0.450299 0.294704
599 1 0.0762927 0.450644 0.206438
3976 1 0.156158 0.421656 0.281105
2179 1 0.150497 0.456698 0.211529
3173 1 0.209085 0.453366 0.267569
2051 1 0.252873 0.490558 0.21886
3756 1 0.149105 0.00189862 0.203176
2082 1 0.872218 0.419109 0.39736
1729 1 0.934357 0.348462 0.400049
677 1 0.269039 0.431893 0.242124
2028 1 0.314926 0.402699 0.26012
1887 1 0.379007 0.431525 0.258916
3218 1 0.0959235 0.452457 0.388941
3097 1 0.321495 0.472476 0.243342
202 1 0.430345 0.421321 0.204736
2630 1 0.594907 0.0298532 0.211815
904 1 0.491739 0.457892 0.222366
1103 1 0.563372 0.479007 0.230428
58 1 0.865076 -3.39997e-05 0.299446
2060 1 0.680347 0.476948 0.258791
1628 1 0.708416 0.490377 0.19879
161 1 0.656388 0.452268 0.340264
168 1 0.701153 0.415638 0.226679
673 1 0.744284 0.45049 0.245113
805 1 0.785437 0.468034 0.307816
724 1 0.437071 0.31608 0.382034
76 1 0.872449 0.442042 0.244569
2211 1 0.851026 0.299097 0.384737
2406 1 0.95969 0.468508 0.229816
2692 1 0.755729 0.426253 0.371596
3121 1 0.987705 0.430163 0.278605
801 1 0.967457 0.494157 0.296802
2405 1 0.926849 0.423372 0.243606
3115 1 0.0667318 0.076805 0.389643
2584 1 0.0543266 0.0360248 0.332253
1294 1 0.0676557 0.0946437 0.323918
1847 1 0.11153 0.0554971 0.327714
506 1 0.114408 0.0967872 0.27969
2636 1 0.163092 0.0453341 0.297968
970 1 0.258596 0.0254311 0.31315
778 1 0.0109601 0.495025 0.342752
1017 1 0.203364 0.0732405 0.349764
3031 1 0.279635 0.0744404 0.378603
180 1 0.372365 0.0182395 0.393935
404 1 0.389078 0.041232 0.332306
945 1 0.343289 0.069473 0.371425
1667 1 0.0812797 0.254184 0.211774
666 1 0.456339 0.0728944 0.329395
2458 1 0.447394 0.0245964 0.371257
2485 1 0.487468 0.0222295 0.320969
719 1 0.542959 0.0132342 0.351003
626 1 0.500578 0.0583288 0.371294
3073 1 0.590718 0.0147389 0.31476
1316 1 0.609843 0.00708089 0.377376
1238 1 0.670828 0.494883 0.394723
966 1 0.00960432 0.28155 0.392101
511 1 0.710133 0.0272607 0.365813
1376 1 0.825992 0.433707 0.3463
723 1 0.758427 0.00818534 0.335995
834 1 0.839296 0.0587069 0.281627
1058 1 0.821755 0.0375079 0.359773
1270 1 0.901565 0.116479 0.35445
947 1 0.877146 0.061334 0.334953
440 1 0.014804 0.053306 0.297092
393 1 0.944519 0.0677848 0.344458
3997 1 0.987665 0.0169693 0.339392
909 1 0.945514 0.032052 0.390073
644 1 0.070301 0.136995 0.375192
3016 1 0.0123344 0.0808006 0.356408
1065 1 0.980869 0.176832 0.339161
1002 1 0.127893 0.165855 0.384369
887 1 0.122244 0.131117 0.324845
422 1 0.132827 0.0967804 0.377968
371 1 0.187207 0.142914 0.358479
2159 1 0.301651 0.111902 0.301585
1346 1 0.263118 0.177451 0.327009
2459 1 0.249324 0.122406 0.342717
3108 1 0.301562 0.131317 0.375697
614 1 0.367971 0.0911573 0.318338
192 1 0.403572 0.143748 0.336146
142 1 0.475637 0.127921 0.351117
2765 1 0.538126 0.108208 0.339256
3022 1 0.56344 0.128937 0.393894
377 1 0.616572 0.131318 0.348209
3649 1 0.589022 0.0740833 0.347487
462 1 0.755679 0.393806 0.216326
1300 1 0.676647 0.0941754 0.367212
3665 1 0.59466 0.150071 0.205299
1062 1 0.765767 0.0733258 0.337211
1205 1 0.844237 0.16065 0.336088
1071 1 0.819838 0.103476 0.385646
681 1 0.904671 0.176769 0.294822
2339 1 0.807593 0.116859 0.317378
2189 1 0.895532 0.190217 0.355562
3676 1 0.94884 0.132431 0.33347
2687 1 0.406011 0.496393 0.246277
577 1 0.630273 0.0191582 0.262126
2698 1 0.0321262 0.208159 0.375515
1206 1 0.0261712 0.205323 0.300225
25 1 0.0619914 0.276148 0.341093
1182 1 0.108827 0.235355 0.372189
2460 1 0.157124 0.195821 0.34234
711 1 0.215289 0.223612 0.353357
1960 1 0.291317 0.215426 0.379537
582 1 0.343147 0.173148 0.328909
746 1 0.400401 0.189667 0.383794
2524 1 0.399691 0.212213 0.312939
2048 1 0.464923 0.204925 0.362611
2053 1 0.0993289 0.348812 0.385
1562 1 0.519756 0.177766 0.365667
1556 1 0.490842 0.265359 0.341182
247 1 0.525572 0.223886 0.308933
1097 1 0.555934 0.252789 0.356744
633 1 0.568624 0.165537 0.316742
95 1 0.596609 0.179199 0.382539
2226 1 0.644919 0.24006 0.346258
2411 1 0.706831 0.228031 0.315236
1309 1 0.712144 0.196112 0.392545
960 1 0.653902 0.23626 0.288502
2756 1 0.776757 0.191305 0.369435
2063 1 0.843258 0.226141 0.330207
870 1 0.898171 0.25549 0.332372
147 1 0.953916 0.230889 0.340663
183 1 0.938654 0.157154 0.388146
483 1 0.0095979 0.135408 0.388789
544 1 0.996742 0.283089 0.325537
431 1 0.0300677 0.339757 0.353805
3359 1 0.0702238 0.304644 0.397832
3914 1 0.105005 0.233295 0.300757
2926 1 0.767672 0.0489742 0.395712
2906 1 0.247176 0.295729 0.384998
1108 1 0.149672 0.277745 0.359658
682 1 0.209301 0.305419 0.326347
2342 1 0.300653 0.275602 0.360588
601 1 0.25513 0.246814 0.314245
537 1 0.270785 0.324279 0.327227
2977 1 0.367294 0.270497 0.312281
1611 1 0.359402 0.228072 0.362666
249 1 0.427236 0.283147 0.334178
3102 1 0.42443 0.249277 0.380882
2412 1 0.489116 0.25876 0.277851
726 1 0.477316 0.330105 0.317522
883 1 0.526575 0.366782 0.27226
285 1 0.524582 0.315219 0.360194
2872 1 0.576783 0.346453 0.307608
573 1 0.611555 0.293078 0.330352
494 1 0.746454 0.276826 0.332155
1114 1 0.679819 0.292528 0.326386
397 1 0.780068 0.239578 0.292949
3052 1 0.783106 0.330483 0.364372
946 1 0.834797 0.293843 0.314464
496 1 0.908459 0.246199 0.396749
467 1 0.889904 0.336416 0.358408
1786 1 0.936745 0.305576 0.317238
2575 1 0.944828 0.286537 0.377111
976 1 0.961808 0.34945 0.343131
1799 1 0.00991251 0.393159 0.391861
2193 1 0.00276846 0.391583 0.324069
1891 1 0.808532 0.442895 0.205285
2695 1 0.0764074 0.397752 0.347694
382 1 0.0732764 0.410933 0.291599
2153 1 0.0931055 0.327638 0.330699
366 1 0.138444 0.417825 0.344739
2312 1 0.198005 0.335399 0.280072
727 1 0.16245 0.353655 0.348604
926 1 0.292245 0.333935 0.381284
315 1 0.296522 0.407808 0.329916
171 1 0.224915 0.360256 0.361285
2713 1 0.424136 0.428779 0.339149
1863 1 0.344505 0.336394 0.355021
625 1 0.485241 0.433469 0.351136
1981 1 0.404242 0.352162 0.319824
3110 1 0.392474 0.370617 0.388812
974 1 0.450876 0.37231 0.366491
605 1 0.548767 0.405725 0.324859
1581 1 0.589181 0.345428 0.37903
2484 1 0.612833 0.393991 0.341811
136 1 0.608281 0.401915 0.264873
1263 1 0.634693 0.341315 0.28387
843 1 0.727907 0.358589 0.384929
965 1 0.714037 0.341527 0.322698
2196 1 0.692007 0.400619 0.346403
1171 1 0.658623 0.33183 0.372837
2161 1 0.795214 0.384611 0.320007
2911 1 0.0717418 0.00468126 0.382075
557 1 0.919082 0.398562 0.350793
3186 1 0.868499 0.412196 0.298054
1849 1 0.837321 0.371083 0.356528
1328 1 0.888228 0.338335 0.295743
2258 1 0.548514 0.428322 0.392824
495 1 0.94216 0.385151 0.29266
1021 1 0.0383595 0.446947 0.351192
3890 1 0.379189 0.28942 0.380841
492 1 0.120138 0.471679 0.304523
2620 1 0.188158 0.461499 0.330775
3051 1 0.208021 0.410317 0.388423
2644 1 0.391269 0.0911142 0.217483
2203 1 0.201376 0.393332 0.321948
512 1 0.307917 0.455809 0.298069
840 1 0.311906 0.469336 0.37459
928 1 0.25444 0.443916 0.350735
295 1 0.0166286 0.438417 0.21299
316 1 0.36822 0.460255 0.323205
2403 1 0.242789 0.0406281 0.201601
2742 1 0.444681 0.465268 0.278981
2709 1 0.454624 0.491991 0.35377
2455 1 0.87458 -0.000482793 0.23295
2183 1 0.79779 0.489054 0.364613
1024 1 0.517679 0.475377 0.275556
3979 1 0.536766 0.473933 0.346213
3623 1 0.61331 0.440277 0.381109
2897 1 0.588777 0.463735 0.291478
3975 1 0.358611 0.42334 0.374307
1366 1 0.726513 0.474652 0.357497
2504 1 0.396013 0.464462 0.385292
987 1 0.731507 0.428415 0.302303
1274 1 0.9701 0.500216 0.392394
3085 1 0.202781 0.00829012 0.362355
1507 1 0.650583 0.185509 0.201805
2849 1 0.138926 0.027602 0.373807
1255 1 0.268214 0.398719 0.385203
1818 1 0.961164 0.238936 0.200326
37 1 0.433392 0.351073 0.206748
2421 1 0.901115 0.497618 0.265779
2444 1 0.176608 0.330369 0.399772
3513 1 0.00425006 0.159096 0.20562
3944 1 0.600415 0.0926521 0.216891
1160 1 0.765604 0.169845 0.206345
2004 1 0.519114 0.244013 0.210126
949 1 0.172833 0.499334 0.247688
197 1 0.112249 0.491973 0.250795
266 1 0.876871 0.147016 0.400231
1596 1 0.852879 0.211635 0.389547
621 1 0.389826 0.292906 0.201619
2031 1 0.0540128 0.0214406 0.443325
3437 1 0.116537 0.0575786 0.536796
1078 1 0.109862 0.0513992 0.421075
1086 1 0.162585 0.0528589 0.479001
2427 1 0.50928 0.112765 0.405296
2887 1 0.305519 0.0472634 0.588894
566 1 0.17238 0.0327539 0.428252
1590 1 0.211881 0.100384 0.465684
3133 1 0.632266 0.495623 0.443381
3079 1 0.31148 0.101914 0.422487
3226 1 0.270115 0.0682442 0.456261
3878 1 0.240393 0.0313537 0.410826
3312 1 0.318832 0.0362157 0.447845
1115 1 0.385334 0.0444445 0.502487
3177 1 0.369742 0.0713284 0.435252
3326 1 0.443059 0.0331049 0.545024
518 1 0.453167 0.0648904 0.424367
3552 1 0.417268 0.013586 0.44039
1251 1 0.479987 0.0211982 0.495199
1820 1 0.505374 0.033693 0.428042
999 1 0.516117 0.0690959 0.482416
2583 1 0.735473 0.458115 0.585529
995 1 0.578849 0.0462046 0.477152
2206 1 0.326708 0.0123371 0.501076
3805 1 0.667738 0.0493646 0.509155
1032 1 0.63771 0.042874 0.45059
1545 1 0.698197 0.00631022 0.448609
1396 1 0.74975 0.0442214 0.458773
3862 1 0.877343 0.0754265 0.414491
854 1 0.846212 0.339452 0.41545
584 1 0.887676 0.0127943 0.404917
3925 1 0.82418 0.0420821 0.423195
742 1 0.870515 0.0569222 0.469867
2112 1 0.213717 0.0166286 0.567473
2212 1 0.935936 0.0663079 0.446738
2938 1 0.986247 0.0520833 0.488285
481 1 0.911813 0.498047 0.415126
1081 1 0.00851077 0.0722964 0.42928
1738 1 0.0616435 0.0698999 0.483251
3313 1 0.639622 0.439518 0.535844
2988 1 0.0761649 0.119893 0.436994
2909 1 0.178675 0.127798 0.510091
2776 1 0.204644 0.153461 0.43882
968 1 0.16734 0.0972725 0.426363
2973 1 0.799163 0.436758 0.539978
237 1 0.31028 0.174861 0.419106
741 1 0.281823 0.132643 0.471773
1143 1 0.35998 0.147251 0.461694
731 1 0.561237 0.0112371 0.424946
1658 1 0.408395 0.106914 0.454507
3332 1 0.457224 0.0744887 0.499537
1000 1 0.440148 0.130516 0.410953
1095 1 0.29768 0.464686 0.591611
3198 1 0.566176 0.103402 0.458094
1529 1 0.562611 0.155983 0.497565
2235 1 0.127888 0.00964408 0.471046
2561 1 0.62032 0.0918258 0.491687
2415 1 0.679656 0.165274 0.466492
1066 1 0.741715 0.180736 0.433478
2753 1 0.686458 0.097018 0.462246
3229 1 0.737421 0.122423 0.470901
510 1 0.841626 0.121775 0.456563
638 1 0.802333 0.15456 0.414525
3182 1 0.78654 0.0879961 0.44592
8 1 0.916302 0.133589 0.453504
2894 1 0.86465 0.136991 0.514109
1467 1 0.613439 0.0902546 0.405774
3525 1 0.947097 0.171539 0.500594
480 1 0.979476 0.122254 0.46147
1030 1 0.0280167 0.214332 0.458806
3315 1 0.0358365 0.14733 0.470179
2871 1 0.0915675 0.224942 0.490578
2129 1 0.124025 0.215519 0.431228
70 1 0.0886663 0.158574 0.491954
346 1 0.0662654 0.184675 0.424689
2780 1 0.142679 0.146575 0.436892
2941 1 0.273745 0.206761 0.478397
703 1 0.672615 0.198651 0.590658
288 1 0.191478 0.209054 0.460526
423 1 0.258832 0.22901 0.42378
2123 1 0.362778 0.264765 0.452441