ITEM: TIMESTEP
3000
ITEM: NUMBER OF ATOMS
32000
ITEM: BOX BOUNDS pp pp pp
-1.1084077215971817e+00 5.8508407721597266e+01
-1.1084077215971817e+00 5.8508407721597266e+01
-2.2168154431943634e+00 1.1701681544319453e+02
ITEM: ATOMS id type xs ys zs
2 1 0.0207769 0.0166351 0.00894628
443 1 0.0463868 0.0443361 0.0209271
18421 1 0.498609 0.495345 0.149623
4 1 0.0663593 0.0194949 0.00856025
63 1 0.5422 0.0487705 6.33685e-05
6 1 0.125041 0.0306348 0.010689
8 1 0.178567 0.01729 0.00937553
449 1 0.197095 0.0405082 0.0237511
3210 1 0.448718 0.00165474 0.196644
16823 1 0.553223 0.499515 0.050719
10 1 0.231748 0.0283959 0.00961322
17639 1 0.944169 0.494705 0.0998659
2427 1 0.652587 0.00337845 0.151691
12 1 0.277461 0.0258155 0.0112998
2813 1 0.300241 0.00458331 0.175688
16805 1 0.0905961 0.488368 0.0488724
1231 1 0.75537 0.00091358 0.0739668
14 1 0.322898 0.0296802 0.0116527
455 1 0.354982 0.0461122 0.0262621
1207 1 0.150128 0.00119724 0.0766348
16 1 0.373206 0.025751 0.0115754
457 1 0.400903 0.0477641 0.0212215
18 1 0.431215 0.0231401 0.0127313
459 1 0.453606 0.0462047 0.0258789
20 1 0.478622 0.0254337 0.0106581
461 1 0.498182 0.0458601 0.0273843
385 1 0.602976 0.445496 0.00176796
22 1 0.519791 0.019661 0.0114654
463 1 0.550485 0.0438874 0.0270277
3328 1 0.356182 0.30454 0.19708
293 1 0.300703 0.352144 0.00140026
18013 1 0.299455 0.49407 0.121079
24 1 0.57341 0.0231512 0.00970596
26 1 0.625246 0.029504 0.0101437
18825 1 0.59992 0.491445 0.174811
28 1 0.677242 0.0214729 0.0105918
17221 1 0.512576 0.496554 0.0781211
467 1 0.65396 0.0482519 0.0242239
18423 1 0.551096 0.49215 0.152041
17213 1 0.296675 0.495922 0.0789002
30 1 0.723545 0.0268199 0.0138894
469 1 0.703882 0.0567161 0.0260044
815 1 0.352066 0.00733045 0.0491649
16417 1 0.398164 0.495902 0.0235912
32 1 0.780107 0.0296102 0.0110842
471 1 0.759892 0.0520625 0.0264595
137 1 0.404514 0.146701 0.000419447
34 1 0.828269 0.0307006 0.00979143
473 1 0.808788 0.0535676 0.0230606
18407 1 0.14846 0.490506 0.152619
36 1 0.878372 0.0280411 0.0139212
475 1 0.850275 0.0489123 0.0250001
18425 1 0.60929 0.496343 0.151278
38 1 0.924729 0.0252469 0.0101757
16001 1 0.000355429 0.495969 0.00321874
811 1 0.247549 0.00476811 0.0479437
16005 1 0.0902163 0.498703 0.00519473
17609 1 0.199348 0.494876 0.0998267
441 1 0.997742 0.0464977 0.0248424
40 1 0.973625 0.0229592 0.0120866
83 1 0.0495534 0.104196 0.00154939
42 1 0.0204962 0.0744306 0.0119373
483 1 0.0407083 0.101705 0.0240125
44 1 0.070674 0.0783524 0.0106901
445 1 0.0913713 0.0497875 0.020634
447 1 0.151098 0.0509479 0.0210473
485 1 0.0992245 0.0967305 0.0255297
46 1 0.114914 0.0833802 0.00857995
487 1 0.145289 0.0948292 0.0233484
48 1 0.181627 0.0797426 0.0138525
451 1 0.250169 0.0536425 0.0255388
50 1 0.219023 0.0706942 0.013434
491 1 0.242951 0.102466 0.0221046
453 1 0.298469 0.052247 0.0250202
52 1 0.270483 0.0728492 0.011415
493 1 0.300326 0.095619 0.0198267
54 1 0.335122 0.0714343 0.0122945
297 1 0.399259 0.34836 0.000682304
495 1 0.347837 0.104142 0.0243533
56 1 0.374339 0.0739467 0.0106853
497 1 0.397558 0.102432 0.0219019
58 1 0.431036 0.0754375 0.0122271
499 1 0.448877 0.1082 0.0262952
60 1 0.476611 0.0801349 0.0147876
62 1 0.52449 0.0718689 0.0153976
501 1 0.502102 0.0986366 0.0294074
503 1 0.553127 0.0965642 0.0291727
1211 1 0.245842 0.00364376 0.0724993
465 1 0.598641 0.0484212 0.0236782
64 1 0.569136 0.066938 0.0140211
66 1 0.623023 0.075868 0.0118878
505 1 0.592416 0.0933157 0.0258711
16425 1 0.608488 0.496352 0.0288377
68 1 0.681371 0.0768574 0.0143862
507 1 0.655315 0.10384 0.0253909
345 1 0.592413 0.394365 0.00257926
70 1 0.732637 0.0709683 0.0125672
509 1 0.704935 0.100024 0.0261186
1619 1 0.455773 0.00271455 0.0967585
72 1 0.777302 0.0726832 0.0108776
511 1 0.756852 0.0970082 0.0263713
839 1 0.942847 0.000586143 0.0483397
74 1 0.827652 0.0928368 0.0111293
513 1 0.799836 0.105609 0.0293687
399 1 0.948388 0.446101 0.00190659
76 1 0.870075 0.0771626 0.0129845
515 1 0.854089 0.11463 0.0260943
3312 1 0.548003 0.245512 0.198849
477 1 0.89955 0.0534818 0.0244253
479 1 0.95151 0.0477824 0.0235938
78 1 0.931775 0.0772703 0.0136627
517 1 0.903494 0.103213 0.0240373
80 1 0.973281 0.0734518 0.0114211
519 1 0.949765 0.107157 0.0228142
82 1 0.0251192 0.133991 0.0142023
523 1 0.0583467 0.150813 0.0222334
84 1 0.0823504 0.121758 0.0122675
525 1 0.0988905 0.15196 0.0228259
18435 1 0.847135 0.498551 0.147941
86 1 0.119891 0.124041 0.0137802
527 1 0.148463 0.147009 0.0260217
126 1 0.131915 0.173645 0.0120462
88 1 0.174072 0.125717 0.0121446
529 1 0.194383 0.149525 0.0244096
90 1 0.225103 0.133054 0.00955997
531 1 0.249865 0.143631 0.0229824
16433 1 0.7972 0.494332 0.0222045
92 1 0.274982 0.12515 0.0105137
533 1 0.293874 0.148799 0.0222394
113 1 0.794728 0.1085 0.00360622
94 1 0.325129 0.132625 0.0149893
535 1 0.351517 0.152349 0.0228845
381 1 0.498223 0.44571 0.00315697
96 1 0.380761 0.12778 0.011429
537 1 0.403226 0.148479 0.0255853
98 1 0.430766 0.125028 0.0125946
136 1 0.374418 0.17487 0.0120552
539 1 0.446192 0.151176 0.0265808
138 1 0.417267 0.178034 0.0130191
140 1 0.483048 0.170371 0.016614
47 1 0.15092 0.0519338 7.74841e-05
16021 1 0.503658 0.496533 0.00286397
100 1 0.477962 0.123828 0.0150627
541 1 0.505843 0.147851 0.0323316
102 1 0.520324 0.130314 0.0122579
104 1 0.574778 0.129632 0.017529
545 1 0.603782 0.151336 0.026492
17205 1 0.103851 0.493451 0.0753404
106 1 0.626978 0.119709 0.0144799
108 1 0.682605 0.125481 0.0140031
547 1 0.650023 0.150513 0.0259145
110 1 0.727089 0.122089 0.0144979
549 1 0.707478 0.147468 0.0269344
112 1 0.771251 0.13134 0.0147216
551 1 0.747414 0.157971 0.0265054
114 1 0.825765 0.13709 0.0153685
553 1 0.799786 0.153879 0.0272746
147 1 0.65559 0.144118 0.0046036
116 1 0.877891 0.133169 0.00953665
118 1 0.923276 0.135388 0.0110168
557 1 0.899003 0.146797 0.0241464
559 1 0.95278 0.153219 0.0263586
481 1 0.998172 0.100418 0.0235105
521 1 0.00558518 0.159307 0.0271493
120 1 0.98288 0.129103 0.0127348
122 1 0.0334192 0.183794 0.0111317
563 1 0.0505646 0.21009 0.0223258
124 1 0.0796246 0.184637 0.0126681
565 1 0.109349 0.203351 0.023331
164 1 0.0834182 0.231249 0.0151472
567 1 0.156434 0.203316 0.0241247
166 1 0.127787 0.232106 0.0105296
128 1 0.169886 0.173964 0.010363
569 1 0.206184 0.191764 0.0238893
168 1 0.175895 0.227514 0.0106707
130 1 0.22942 0.1703 0.0114182
571 1 0.253268 0.194518 0.0244557
183 1 0.548607 0.198713 0.000389775
132 1 0.27452 0.178636 0.0106109
573 1 0.296196 0.196054 0.0251497
172 1 0.272855 0.225915 0.0115317
134 1 0.31971 0.175045 0.0130081
575 1 0.344905 0.198964 0.0245101
174 1 0.323468 0.223313 0.0107204
577 1 0.393762 0.203672 0.0233795
176 1 0.360749 0.220889 0.0110747
579 1 0.441008 0.194037 0.0262099
178 1 0.426369 0.220248 0.0115101
263 1 0.55175 0.299514 0.00521843
581 1 0.504869 0.195644 0.0303738
142 1 0.52845 0.179224 0.0147584
182 1 0.524686 0.219712 0.0143276
223 1 0.549229 0.243446 0.000356378
144 1 0.578032 0.172811 0.0137267
583 1 0.553625 0.199012 0.0290884
184 1 0.571028 0.225965 0.0137702
2827 1 0.654604 0.0057651 0.170412
146 1 0.626424 0.174651 0.0163335
585 1 0.594862 0.198266 0.0276044
587 1 0.648872 0.199668 0.0245758
16811 1 0.252826 0.497523 0.0505392
148 1 0.675657 0.173732 0.0117123
150 1 0.722613 0.173542 0.00982027
589 1 0.702839 0.188974 0.0254217
152 1 0.769118 0.180562 0.0126525
591 1 0.746605 0.199853 0.0255137
192 1 0.776615 0.222251 0.0151184
154 1 0.827867 0.180817 0.0125482
593 1 0.800071 0.204139 0.0280929
194 1 0.826808 0.222033 0.0159615
185 1 0.597966 0.200439 0.00196302
156 1 0.878616 0.181661 0.00913956
595 1 0.858129 0.202968 0.023811
196 1 0.879354 0.222398 0.00940016
158 1 0.924617 0.178102 0.0114497
597 1 0.899809 0.203203 0.0239683
198 1 0.927731 0.225717 0.00872286
599 1 0.946853 0.203318 0.0235292
561 1 0.00941135 0.211665 0.0265654
160 1 0.982915 0.188482 0.0175968
162 1 0.0268558 0.230365 0.00781205
202 1 0.027597 0.272334 0.0106528
603 1 0.0571355 0.251074 0.02665
605 1 0.110433 0.249294 0.0270391
204 1 0.0855896 0.273292 0.0169717
607 1 0.154897 0.24455 0.0269616
206 1 0.136223 0.273175 0.0130326
609 1 0.204422 0.247352 0.0243637
208 1 0.177812 0.27418 0.0130319
170 1 0.221363 0.221925 0.0132559
611 1 0.249649 0.245648 0.0266597
210 1 0.230707 0.266942 0.0106908
2039 1 0.946323 0.0129847 0.126352
321 1 0.993286 0.396152 0.00131786
613 1 0.29436 0.248324 0.0244481
212 1 0.273089 0.266712 0.0109801
615 1 0.35424 0.244969 0.0249178
214 1 0.320796 0.268341 0.0117553
379 1 0.453016 0.446828 0.000451702
216 1 0.369642 0.269953 0.0097224
617 1 0.394051 0.246763 0.0220376
218 1 0.424818 0.275309 0.0108649
619 1 0.446495 0.247189 0.0248064
220 1 0.471761 0.274 0.0154347
180 1 0.479063 0.212556 0.0160746
222 1 0.524805 0.274146 0.0116753
621 1 0.495678 0.246894 0.0287804
2437 1 0.899966 0.00776032 0.149197
2817 1 0.394219 0.00681689 0.169513
224 1 0.581776 0.271152 0.0125823
623 1 0.548615 0.250376 0.023342
186 1 0.618317 0.221077 0.0152399
625 1 0.603217 0.249368 0.0282694
226 1 0.627882 0.273985 0.0116618
18003 1 0.0544532 0.488627 0.123207
188 1 0.677203 0.21772 0.0152687
627 1 0.648253 0.248115 0.0269188
228 1 0.672848 0.269023 0.0117728
3231 1 0.505515 0.0490362 0.196578
190 1 0.723598 0.21282 0.008708
629 1 0.712591 0.239566 0.022271
230 1 0.725624 0.273936 0.0107901
631 1 0.750574 0.249478 0.0275437
234 1 0.827088 0.274881 0.0140226
633 1 0.798838 0.248191 0.0238765
16837 1 0.898846 0.491336 0.0508661
16007 1 0.155945 0.488799 0.0034861
635 1 0.858957 0.245255 0.0251845
17607 1 0.147684 0.498456 0.103788
238 1 0.928366 0.275233 0.0123789
637 1 0.898607 0.251368 0.0236003
639 1 0.951447 0.249461 0.0211684
200 1 0.98775 0.233195 0.0166778
240 1 0.983963 0.274431 0.0120074
242 1 0.0289136 0.31819 0.0113504
18021 1 0.5013 0.492414 0.124211
643 1 0.0543201 0.293235 0.0253117
244 1 0.08124 0.319661 0.0138772
645 1 0.1085 0.296051 0.0283113
647 1 0.158732 0.299057 0.0219172
246 1 0.1299 0.320131 0.0121294
16801 1 0.996335 0.494558 0.053607
248 1 0.182492 0.318848 0.00955608
250 1 0.230695 0.323279 0.00809805
651 1 0.251728 0.296744 0.0224827
18429 1 0.707511 0.497776 0.150689
252 1 0.273598 0.327797 0.00983341
653 1 0.295755 0.297075 0.0196262
3213 1 0.599053 0.00494796 0.198012
254 1 0.324004 0.320957 0.00827313
256 1 0.378034 0.316376 0.0102006
657 1 0.40419 0.292083 0.024422
258 1 0.425214 0.325852 0.0116628
659 1 0.445835 0.297538 0.0258458
260 1 0.474254 0.322773 0.0153305
16439 1 0.956263 0.496043 0.0245844
262 1 0.51972 0.320721 0.0166069
661 1 0.500303 0.289964 0.0264347
264 1 0.582932 0.325104 0.015513
663 1 0.551956 0.299779 0.0273481
3268 1 0.351281 0.14816 0.197428
266 1 0.627235 0.328776 0.0155727
665 1 0.602818 0.299119 0.0255772
18811 1 0.254786 0.492399 0.175364
349 1 0.698054 0.392002 0.00090059
268 1 0.676953 0.324128 0.0109597
667 1 0.649009 0.296758 0.02526
270 1 0.726927 0.315169 0.00990108
669 1 0.698139 0.298491 0.0259969
232 1 0.780531 0.273722 0.0114998
272 1 0.773413 0.325002 0.010043
671 1 0.749277 0.29638 0.0258166
16427 1 0.654697 0.495339 0.0258249
274 1 0.819242 0.324825 0.0144817
673 1 0.795281 0.300775 0.0237593
2417 1 0.394826 0.00301422 0.148653
236 1 0.876894 0.268916 0.00887925
276 1 0.8702 0.328205 0.0118416
675 1 0.856572 0.296387 0.0242903
677 1 0.90343 0.302307 0.0214295
278 1 0.929849 0.325854 0.0101683
18827 1 0.662621 0.496688 0.179864
679 1 0.955932 0.298744 0.0233266
641 1 0.00318575 0.300323 0.0236256
280 1 0.977554 0.326701 0.0108176
153 1 0.793305 0.15235 1.58043e-06
683 1 0.0545887 0.34717 0.0265348
681 1 0.00577783 0.343569 0.0221018
282 1 0.025985 0.370387 0.0118494
284 1 0.0863881 0.373812 0.0121449
685 1 0.0974866 0.345269 0.0275468
16409 1 0.206723 0.499417 0.0261984
286 1 0.126197 0.364671 0.0139986
687 1 0.158192 0.346577 0.0250175
17635 1 0.849489 0.494553 0.100279
288 1 0.180711 0.371771 0.0102486
689 1 0.206536 0.348277 0.0211217
16815 1 0.348368 0.498851 0.0513007
290 1 0.226023 0.377794 0.00720826
691 1 0.251871 0.357369 0.0215289
199 1 0.960601 0.210351 0.00163438
292 1 0.284168 0.385175 0.0133812
693 1 0.300786 0.3482 0.0235748
294 1 0.33136 0.373386 0.0146119
695 1 0.35413 0.346012 0.0216683
341 1 0.500144 0.398578 0.00189606
833 1 0.807922 0.00328417 0.0513751
296 1 0.373242 0.37956 0.0142596
697 1 0.396522 0.351902 0.0215532
298 1 0.429351 0.375559 0.0117789
699 1 0.448235 0.343824 0.0293266
300 1 0.472544 0.371213 0.0115223
302 1 0.519038 0.374058 0.0156911
701 1 0.499984 0.349504 0.0296835
304 1 0.576409 0.368346 0.0153899
703 1 0.549699 0.347057 0.0270641
306 1 0.622 0.375021 0.0154344
705 1 0.603798 0.347266 0.0280606
18039 1 0.942034 0.490372 0.122526
2801 1 0.000829673 0.00341534 0.17769
308 1 0.674254 0.368031 0.0122149
707 1 0.655931 0.344567 0.0273995
310 1 0.725175 0.368069 0.0137795
709 1 0.700582 0.345151 0.0238347
312 1 0.776659 0.371009 0.0177304
711 1 0.739565 0.339045 0.0268595
3201 1 0.996264 0.00295319 0.198869
314 1 0.829164 0.373972 0.0132548
713 1 0.800678 0.345846 0.02782
316 1 0.874515 0.369323 0.00990415
715 1 0.8532 0.352516 0.0273234
18801 1 0.00845517 0.498935 0.173628
67 1 0.653355 0.0539972 0.000856801
717 1 0.89956 0.349191 0.0224101
318 1 0.924098 0.375347 0.00913987
719 1 0.950149 0.349039 0.0244744
320 1 0.97328 0.373745 0.0157606
322 1 0.0228743 0.418104 0.00971576
723 1 0.0619679 0.390935 0.0251762
721 1 0.998103 0.396225 0.0261963
324 1 0.0837171 0.417509 0.0146236
725 1 0.105203 0.395042 0.0288593
326 1 0.122362 0.426717 0.0179721
727 1 0.149608 0.393281 0.0241908
16031 1 0.748743 0.491818 0.000341174
17207 1 0.147064 0.498625 0.0711593
328 1 0.174962 0.417577 0.0126563
729 1 0.20298 0.399978 0.0258734
769 1 0.198778 0.445856 0.0264851
367 1 0.152488 0.44721 0.00402927
17637 1 0.901952 0.496192 0.100699
330 1 0.225166 0.419963 0.0143611
731 1 0.251898 0.39572 0.0258886
332 1 0.275499 0.423157 0.013316
733 1 0.302563 0.406286 0.0274822
334 1 0.333806 0.419646 0.00860463
735 1 0.342012 0.401139 0.0293763
336 1 0.379598 0.423133 0.0112485
737 1 0.406431 0.400898 0.0250506
338 1 0.428698 0.427612 0.0111617
777 1 0.401297 0.44678 0.0233718
739 1 0.452011 0.39834 0.0264409
340 1 0.474237 0.418805 0.0146174
741 1 0.500689 0.397364 0.0254969
781 1 0.501989 0.448449 0.0251233
342 1 0.524209 0.417944 0.013152
743 1 0.55415 0.395392 0.0229089
344 1 0.578027 0.420466 0.015852
346 1 0.627162 0.419142 0.0168111
745 1 0.602171 0.397301 0.0266962
17613 1 0.295706 0.499502 0.0998055
181 1 0.497887 0.1924 0.0013192
348 1 0.672171 0.422899 0.0120258
747 1 0.653663 0.387702 0.0271775
787 1 0.654292 0.447913 0.025686
350 1 0.720269 0.415879 0.0126845
749 1 0.696584 0.395237 0.025853
352 1 0.772494 0.419989 0.0134731
751 1 0.746977 0.397484 0.0247124
354 1 0.824881 0.425782 0.0116556
753 1 0.796756 0.398431 0.0275194
313 1 0.798807 0.347403 0.000749521
356 1 0.8736 0.422181 0.0117113
755 1 0.850023 0.399566 0.0240055
795 1 0.838749 0.450095 0.0260914
358 1 0.919108 0.418281 0.0121361
757 1 0.897287 0.395207 0.0238481
759 1 0.950003 0.395239 0.028059
360 1 0.972278 0.418319 0.0156349
362 1 0.0192871 0.47041 0.0142217
761 1 0.000454513 0.439236 0.0245898
265 1 0.598994 0.301068 0.00299489
763 1 0.0486298 0.435372 0.0233999
364 1 0.0624508 0.463188 0.0102493
765 1 0.0945726 0.449937 0.02851
18437 1 0.90104 0.49723 0.152644
366 1 0.126588 0.472815 0.0141981
767 1 0.153794 0.449244 0.0262585
17203 1 0.0448472 0.487829 0.0749371
3230 1 0.447843 0.0486468 0.196426
368 1 0.182407 0.473443 0.0158584
427 1 0.647398 0.00137152 0.0218439
370 1 0.226444 0.475555 0.0104134
771 1 0.248945 0.450541 0.0212772
372 1 0.288544 0.472669 0.0140664
773 1 0.306923 0.452971 0.0278067
16421 1 0.503797 0.495504 0.0244714
2811 1 0.260659 0.00384504 0.174601
374 1 0.332217 0.474268 0.0140188
775 1 0.348797 0.443798 0.0280392
376 1 0.370393 0.465996 0.0147235
378 1 0.423587 0.471397 0.0135595
18035 1 0.85368 0.491684 0.124227
2411 1 0.240602 0.00691817 0.144466
18401 1 0.00550754 0.487946 0.147785
779 1 0.458007 0.450794 0.0264575
16839 1 0.949151 0.494281 0.0506657
347 1 0.650254 0.39853 0.000591701
3182 1 0.528329 0.471424 0.190366
380 1 0.476227 0.474791 0.0133244
18413 1 0.306989 0.488262 0.140502
93 1 0.301801 0.102879 0.000475174
382 1 0.531512 0.473279 0.0130347
384 1 0.580929 0.471545 0.0163967
783 1 0.550837 0.443892 0.025573
3259 1 0.90198 0.106536 0.195359
386 1 0.621258 0.47251 0.0162712
785 1 0.604785 0.441749 0.0291463
41 1 0.9963 0.0486918 0.000993573
388 1 0.677513 0.474077 0.0119621
245 1 0.107425 0.290855 0.000729
18823 1 0.550256 0.49399 0.174907
373 1 0.299955 0.442322 0.00180699
390 1 0.721512 0.468747 0.013044
789 1 0.700418 0.441048 0.0253421
16429 1 0.702646 0.499497 0.0265795
18803 1 0.0496729 0.496927 0.173524
392 1 0.770756 0.468602 0.0107228
791 1 0.74636 0.448838 0.025744
394 1 0.819023 0.472176 0.0101873
793 1 0.794322 0.446652 0.0265791
141 1 0.495784 0.148896 0.000252758
219 1 0.457924 0.244444 0.00339603
396 1 0.873567 0.470582 0.0140263
16435 1 0.839911 0.494457 0.0272874
18411 1 0.260415 0.495454 0.150468
797 1 0.897701 0.448073 0.0243011
398 1 0.924099 0.470261 0.0122314
400 1 0.973247 0.465854 0.0149781
799 1 0.946451 0.437202 0.0248905
3390 1 0.446422 0.438414 0.196806
139 1 0.451263 0.151349 0.00286849
402 1 0.0163445 0.0206397 0.0395477
843 1 0.0548705 0.051627 0.0517554
203 1 0.0619844 0.254371 0.00233723
3351 1 0.502145 0.349808 0.19678
404 1 0.0737279 0.0244756 0.0350418
845 1 0.105034 0.0528147 0.0513333
406 1 0.129643 0.0256889 0.0359006
17233 1 0.797871 0.495726 0.0770998
408 1 0.176707 0.0218552 0.0372577
849 1 0.193854 0.049726 0.0480943
3221 1 0.00112168 0.046047 0.19718
410 1 0.227832 0.0253984 0.0356314
3200 1 0.980301 0.47591 0.186111
412 1 0.278484 0.0193852 0.0360164
387 1 0.649766 0.442134 0.00120458
414 1 0.32861 0.0195644 0.0324419
855 1 0.348432 0.0473967 0.0480997
16825 1 0.597767 0.497083 0.0523831
416 1 0.38167 0.0201064 0.0349245
857 1 0.396735 0.0512172 0.0466087
16431 1 0.750364 0.495356 0.0242068
418 1 0.426523 0.0196759 0.0340775
859 1 0.442985 0.0448739 0.0471033
420 1 0.474216 0.0218613 0.0365911
19206 1 0.25472 0.499341 0.19852
17229 1 0.700177 0.494668 0.0772476
422 1 0.519696 0.0237094 0.0400449
861 1 0.498852 0.0479016 0.0517448
863 1 0.55448 0.0435514 0.0517815
2821 1 0.499353 0.00020733 0.174613
16803 1 0.0455778 0.490199 0.0517586
424 1 0.579909 0.0239615 0.0374193
426 1 0.625076 0.0241867 0.0373179
865 1 0.609528 0.0447144 0.0529795
428 1 0.685926 0.0220808 0.0364017
867 1 0.655276 0.0479205 0.0470942
16807 1 0.149812 0.492816 0.046814
430 1 0.725496 0.0294564 0.0374665
869 1 0.703744 0.0555478 0.0469832
432 1 0.782142 0.0270846 0.0372419
871 1 0.75158 0.04527 0.0493196
273 1 0.806641 0.297458 0.00191963
3265 1 0.193903 0.134318 0.198697
434 1 0.830962 0.0245435 0.040309
873 1 0.805152 0.0433577 0.0518029
436 1 0.879701 0.0187755 0.0370135
17211 1 0.250682 0.493283 0.0711238
99 1 0.455979 0.0993106 0.00161293
17209 1 0.202935 0.497992 0.0759927
438 1 0.919758 0.0272243 0.0358183
231 1 0.750338 0.244008 0.00549564
841 1 0.996886 0.0460696 0.0499931
440 1 0.970535 0.0240401 0.037259
442 1 0.0286642 0.0687119 0.0358465
883 1 0.0544108 0.0963914 0.0505542
444 1 0.0755535 0.076851 0.0360193
885 1 0.103064 0.101314 0.0490984
847 1 0.152541 0.0477491 0.0504235
446 1 0.12461 0.068018 0.0356352
887 1 0.145954 0.0944899 0.0499868
489 1 0.20548 0.102311 0.0262287
448 1 0.173674 0.0717886 0.034271
889 1 0.195583 0.0970653 0.0499049
450 1 0.225283 0.0760355 0.0364753
891 1 0.249351 0.0959258 0.0497619
452 1 0.271346 0.0807127 0.034957
853 1 0.303891 0.0477391 0.0440063
893 1 0.306959 0.0917254 0.0470502
454 1 0.328598 0.0740764 0.0343274
895 1 0.351419 0.0897583 0.047919
456 1 0.377687 0.0793497 0.0334979
897 1 0.395069 0.10017 0.0483819
458 1 0.42702 0.0782871 0.0349895
899 1 0.45209 0.099318 0.0486803
460 1 0.469342 0.0715003 0.0367563
901 1 0.497822 0.0964104 0.0510331
462 1 0.5275 0.0665974 0.0399999
903 1 0.55813 0.0901807 0.0495651
464 1 0.578635 0.065257 0.0378117
466 1 0.626073 0.0675168 0.0374318
905 1 0.602588 0.0999792 0.0496163
468 1 0.675258 0.073917 0.036739
907 1 0.6556 0.104497 0.050269
470 1 0.727331 0.0787345 0.0367894
909 1 0.703599 0.104036 0.0506706
472 1 0.786706 0.072497 0.040768
911 1 0.76046 0.0952775 0.0486422
474 1 0.829695 0.080962 0.035608
913 1 0.808087 0.105616 0.049053
875 1 0.855128 0.0548115 0.0474005
476 1 0.875251 0.0850544 0.0354282
915 1 0.857651 0.101676 0.0515118
877 1 0.900875 0.0593777 0.0469263
478 1 0.929282 0.0768629 0.0344698
917 1 0.900463 0.103039 0.0517952
879 1 0.942619 0.052772 0.0501584
881 1 0.00944954 0.0943228 0.0492509
480 1 0.970514 0.0800761 0.0378225
919 1 0.94567 0.0983624 0.0544727
482 1 0.0173957 0.126179 0.0368211
923 1 0.0454516 0.147405 0.0487037
484 1 0.0732211 0.126606 0.0366603
925 1 0.0986453 0.146223 0.0494665
486 1 0.126636 0.123913 0.0348153
927 1 0.160804 0.139718 0.0502606
526 1 0.126087 0.173092 0.0367367
488 1 0.172037 0.118783 0.0344241
929 1 0.203452 0.146938 0.0483077
490 1 0.229513 0.127755 0.0378688
931 1 0.255123 0.145721 0.0492246
492 1 0.277437 0.121987 0.0334036
933 1 0.301413 0.152766 0.048315
494 1 0.323358 0.123812 0.0383516
935 1 0.346295 0.157388 0.0485099
496 1 0.374731 0.127994 0.038228
937 1 0.394863 0.15269 0.0528122
498 1 0.424021 0.125761 0.0395903
939 1 0.449753 0.153638 0.0490055
500 1 0.472789 0.127852 0.0369512
502 1 0.533665 0.119564 0.0419722
941 1 0.499823 0.150614 0.0526143
543 1 0.550799 0.148443 0.0316297
504 1 0.577265 0.126562 0.0414086
943 1 0.546711 0.147059 0.05636
506 1 0.626211 0.123701 0.0390502
945 1 0.605627 0.144892 0.0523348
947 1 0.656193 0.153153 0.0553897
508 1 0.674467 0.128958 0.0382679
510 1 0.730878 0.115739 0.0408924
949 1 0.707449 0.153119 0.0522133
512 1 0.772802 0.128228 0.0388645
951 1 0.747241 0.154444 0.050302
514 1 0.827559 0.13325 0.0379397
953 1 0.80413 0.153925 0.0474004
555 1 0.856641 0.15823 0.0255636
516 1 0.876421 0.126385 0.0405302
955 1 0.855302 0.154627 0.049072
518 1 0.927045 0.122774 0.0390284
957 1 0.905568 0.150835 0.0477247
959 1 0.95111 0.148942 0.0511266
921 1 0.996175 0.164716 0.0496394
520 1 0.974498 0.120577 0.0373928
522 1 0.0363991 0.182192 0.0388436
963 1 0.0611704 0.206095 0.0512268
961 1 0.00231699 0.204464 0.0499196
524 1 0.0773876 0.175917 0.0370356
965 1 0.102045 0.190869 0.0517633
564 1 0.0777161 0.225398 0.0373803
967 1 0.152442 0.198436 0.049993
566 1 0.121891 0.216951 0.0401386
528 1 0.17731 0.174096 0.0356934
969 1 0.203229 0.190426 0.0471071
568 1 0.186523 0.222497 0.0362668
530 1 0.229094 0.167611 0.0352699
971 1 0.24725 0.194124 0.0497289
570 1 0.224734 0.218007 0.0343043
532 1 0.274121 0.169638 0.0361082
973 1 0.304112 0.193874 0.0523711
534 1 0.32273 0.169204 0.0349497
574 1 0.315819 0.224491 0.0383341
975 1 0.346762 0.200861 0.0505609
536 1 0.378119 0.172101 0.0356631
977 1 0.396804 0.196391 0.0527122
576 1 0.376883 0.221704 0.039347
538 1 0.418714 0.17458 0.0385245
979 1 0.445988 0.200203 0.0510329
540 1 0.471448 0.17737 0.0377997
578 1 0.417493 0.220243 0.0374442
981 1 0.49793 0.201558 0.0512873
542 1 0.533125 0.17361 0.0437877
582 1 0.533891 0.225188 0.0415886
544 1 0.577403 0.171878 0.0425172
983 1 0.557673 0.198945 0.0530512
584 1 0.577044 0.226989 0.041489
546 1 0.629925 0.17077 0.0424468
985 1 0.597026 0.194169 0.0557974
586 1 0.618791 0.220386 0.0405311
987 1 0.645254 0.199694 0.0509761
548 1 0.672358 0.173443 0.0396451
550 1 0.727817 0.180696 0.0397521
989 1 0.695085 0.195284 0.049587
552 1 0.772944 0.178991 0.0377755
991 1 0.754353 0.19976 0.0501663
554 1 0.826735 0.17543 0.0353848
993 1 0.804876 0.200944 0.0493581
556 1 0.885317 0.1776 0.0380168
995 1 0.85437 0.200184 0.047141
596 1 0.882071 0.225736 0.042093
558 1 0.926479 0.183168 0.0379752
997 1 0.908281 0.210862 0.0520403
598 1 0.927516 0.227297 0.0340056
560 1 0.968471 0.182008 0.0393216
999 1 0.944457 0.210702 0.0524308
600 1 0.971194 0.226754 0.0351903
562 1 0.0315205 0.22606 0.0431191
1003 1 0.0554321 0.248417 0.0563556
1001 1 0.997553 0.247687 0.0493397
602 1 0.0316599 0.279772 0.0416053
1005 1 0.103337 0.247359 0.0517295
604 1 0.0768696 0.271571 0.0410457
606 1 0.131998 0.27075 0.0409022
1007 1 0.157141 0.239106 0.0477679
1009 1 0.204859 0.241468 0.052139
608 1 0.180373 0.271783 0.0381213
1011 1 0.245218 0.245931 0.0498617
610 1 0.22417 0.269396 0.0367562
572 1 0.271524 0.21988 0.0383907
1013 1 0.299512 0.252368 0.0479293
612 1 0.271937 0.274077 0.0381255
1015 1 0.346347 0.243483 0.0492871
614 1 0.323671 0.27307 0.0345542
1017 1 0.401105 0.250142 0.050547
618 1 0.426432 0.277267 0.043781
616 1 0.376133 0.277741 0.0378983
1019 1 0.441607 0.244306 0.0497407
620 1 0.4712 0.270965 0.0396104
580 1 0.470796 0.221918 0.0379972
1021 1 0.499709 0.247728 0.0520378
1023 1 0.554098 0.252818 0.0559007
622 1 0.529345 0.272962 0.0375493
624 1 0.570979 0.269748 0.0382712
1025 1 0.605063 0.25234 0.0489957
626 1 0.627347 0.279768 0.0396815
588 1 0.676685 0.22186 0.0363513
628 1 0.675459 0.271441 0.0372465
1027 1 0.652028 0.242786 0.0492774
630 1 0.722872 0.271055 0.037174
1029 1 0.699756 0.250726 0.0492596
590 1 0.724037 0.219587 0.0388156
592 1 0.774215 0.228425 0.0396409
632 1 0.778484 0.274719 0.0408307
1031 1 0.751067 0.255961 0.0522697
594 1 0.834138 0.224719 0.0371811
634 1 0.825438 0.27848 0.0356734
1033 1 0.803613 0.248714 0.0479919
1035 1 0.85741 0.256566 0.04559
636 1 0.884592 0.281919 0.0401738
638 1 0.926807 0.274806 0.0362023
1037 1 0.906724 0.252766 0.0523308
1039 1 0.94946 0.25116 0.0487332
601 1 0.0162454 0.25549 0.0292297
640 1 0.974818 0.272042 0.0360999
642 1 0.0237541 0.321368 0.0385882
1041 1 0.00161954 0.291699 0.0516965
1043 1 0.0545832 0.298318 0.0556154
644 1 0.071478 0.322184 0.0411686
1045 1 0.107388 0.300796 0.0509074
646 1 0.133058 0.324892 0.0355707
1047 1 0.161722 0.300472 0.0468958
649 1 0.203704 0.296459 0.0218172
648 1 0.179342 0.326263 0.0359325
1049 1 0.202518 0.297137 0.0470774
650 1 0.227095 0.330624 0.0348321
1051 1 0.246644 0.302802 0.0467456
1053 1 0.295766 0.300736 0.0450541
652 1 0.274813 0.324058 0.0335169
655 1 0.349495 0.296481 0.0204013
654 1 0.326636 0.318733 0.0338688
1055 1 0.352393 0.299667 0.0486872
656 1 0.374838 0.31837 0.033551
1057 1 0.399433 0.305841 0.0483377
658 1 0.417093 0.327201 0.0344612
1059 1 0.443589 0.307475 0.0517356
660 1 0.475749 0.318113 0.0386608
662 1 0.524958 0.319762 0.0391759
1061 1 0.504391 0.296367 0.0502222
664 1 0.576406 0.319458 0.0393579
1063 1 0.552185 0.292835 0.0530516
666 1 0.628263 0.318297 0.0386393
1065 1 0.597812 0.295564 0.0536032
668 1 0.677747 0.320772 0.0392427
1067 1 0.65439 0.297447 0.0509633
670 1 0.72064 0.315345 0.0411727
1069 1 0.699976 0.297471 0.054854
672 1 0.769849 0.319994 0.0386953
1071 1 0.74872 0.296918 0.0533921
674 1 0.826704 0.320583 0.0349139
1073 1 0.801824 0.301784 0.0490661
676 1 0.880424 0.323183 0.0396535
1075 1 0.849357 0.301767 0.0467481
1077 1 0.907596 0.295781 0.0540833
678 1 0.923998 0.322697 0.0353718
680 1 0.976674 0.319719 0.0388262
1079 1 0.95712 0.294773 0.052105
682 1 0.0260719 0.368483 0.0375964
1083 1 0.0519153 0.348147 0.0568644
1081 1 0.00494863 0.346586 0.0497672
684 1 0.0792312 0.366815 0.0412221
1085 1 0.103272 0.341951 0.0520925
686 1 0.126201 0.369716 0.0391146
1087 1 0.156294 0.348583 0.0488706
688 1 0.176578 0.375598 0.0365401
1089 1 0.201504 0.349633 0.0512007
690 1 0.223823 0.371256 0.0362373
1091 1 0.251603 0.343377 0.0468547
692 1 0.277693 0.375947 0.0366044
1093 1 0.293993 0.349061 0.0494752
694 1 0.32438 0.370117 0.0349579
1095 1 0.346319 0.343193 0.0485737
696 1 0.378562 0.375641 0.0342495
1097 1 0.396853 0.349262 0.0477484
698 1 0.426982 0.369278 0.0352184
1099 1 0.45071 0.346723 0.0496762
700 1 0.474832 0.375435 0.0378784
1101 1 0.502296 0.348535 0.0487302
702 1 0.527749 0.37271 0.0383867
704 1 0.572354 0.376298 0.0376679
1103 1 0.55625 0.348601 0.0492496
706 1 0.62684 0.370569 0.0392366
1105 1 0.596754 0.346731 0.0492531
1145 1 0.60095 0.395637 0.0507825
708 1 0.674478 0.368655 0.0412494
1107 1 0.650568 0.341932 0.0534553
1109 1 0.698283 0.345097 0.051673
710 1 0.724891 0.36933 0.0387818
1149 1 0.703027 0.392699 0.0518922
712 1 0.771014 0.367694 0.0370985
1111 1 0.744094 0.344867 0.0520807
1151 1 0.750292 0.394383 0.0520728
714 1 0.827036 0.376442 0.0374337
1113 1 0.798022 0.343769 0.0504984
716 1 0.875245 0.378312 0.0398249
1115 1 0.853869 0.34414 0.0516408
1117 1 0.904704 0.349409 0.0531661
718 1 0.91629 0.371185 0.0380733
1119 1 0.942741 0.345741 0.0483249
720 1 0.978341 0.369478 0.0375258
722 1 0.0251311 0.413601 0.0378087
1123 1 0.0556038 0.390478 0.0501573
724 1 0.0755905 0.417743 0.0382053
1125 1 0.104209 0.401749 0.0506089
726 1 0.130687 0.42316 0.0404379
1127 1 0.151322 0.397114 0.0492574
728 1 0.17634 0.421568 0.035922
1129 1 0.205272 0.398014 0.0459744
730 1 0.231444 0.426129 0.0356778
1131 1 0.249293 0.399849 0.0503061
732 1 0.272848 0.424481 0.0340395
1133 1 0.304482 0.394027 0.0503786
734 1 0.326998 0.427664 0.0432876
1135 1 0.351488 0.393008 0.0494642
1175 1 0.349187 0.4583 0.0529294
1134 1 0.324247 0.433059 0.0632756
736 1 0.372535 0.426305 0.0378934
1137 1 0.396776 0.402317 0.0469234
1177 1 0.401821 0.447123 0.0502803
738 1 0.426829 0.420712 0.039135
1139 1 0.450631 0.397313 0.0485986
740 1 0.480672 0.42366 0.0368883
1141 1 0.501325 0.402155 0.0485059
742 1 0.530321 0.417945 0.0372158
1143 1 0.553018 0.39698 0.0514155
744 1 0.575554 0.420355 0.0396811
746 1 0.632335 0.415794 0.0374667
1147 1 0.652824 0.394566 0.0530215
1187 1 0.6531 0.446817 0.0525149
1148 1 0.677576 0.420798 0.0641051
748 1 0.677363 0.421945 0.0391419
750 1 0.727717 0.419801 0.0384295
752 1 0.765986 0.416917 0.0384009
754 1 0.821901 0.420753 0.0382976
1153 1 0.795819 0.393963 0.0494658
1193 1 0.797129 0.443405 0.0497172
756 1 0.874606 0.423665 0.0360418
1155 1 0.849065 0.401033 0.0521214
1195 1 0.847973 0.446811 0.0492054
758 1 0.921584 0.418219 0.0378821
1157 1 0.901551 0.39526 0.0525305
1121 1 0.00452066 0.394747 0.0515658
760 1 0.978187 0.420931 0.0403589
1159 1 0.94907 0.395471 0.0528442
762 1 0.0262644 0.467065 0.0369811
1163 1 0.0488672 0.442365 0.0517005
1161 1 0.00372637 0.440179 0.0495885
764 1 0.0671706 0.464999 0.0380937
1165 1 0.0970953 0.441883 0.0515565