ITEM: TIMESTEP
3000
ITEM: NUMBER OF ATOMS
32000
ITEM: BOX BOUNDS pp pp pp
-8.1850966637880873e-01 5.2218509666378552e+01
-1.4177003286545045e+00 9.0445111837695293e+01
-1.3366206881089582e+00 8.5272469207478849e+01
ITEM: ATOMS id type xs ys zs
8 1 0.0552251 0.0177234 0.0232402
169 1 0.106226 0.0991267 0.000951157
12 1 0.103019 0.0138465 0.0238635
16 1 0.149084 0.0137377 0.0242735
150 1 0.876953 0.0730987 0.000973582
20 1 0.197231 0.0176414 0.0226474
109 1 0.352412 0.0502243 0.000731108
1613 1 0.138594 0.00341499 0.247329
24 1 0.250252 0.0162283 0.0300886
28 1 0.297657 0.0158074 0.0270748
32 1 0.346948 0.01849 0.0255516
36 1 0.397914 0.0175899 0.0268861
97 1 0.200423 0.048784 0.000218709
2249 1 0.104283 -8.47404e-05 0.350363
40 1 0.450282 0.0157386 0.0247507
1925 1 0.0519931 0.00199995 0.297711
44 1 0.503319 0.0167486 0.0272586
29 1 0.351918 0.00386903 0.00367398
114 1 0.422248 0.0758176 0.00379301
48 1 0.548133 0.0132266 0.0248254
2601 1 0.502026 0.00160722 0.394562
52 1 0.596691 0.0140545 0.025813
2937 1 0.707319 0.002399 0.446228
3213 1 0.165127 0.00270558 0.50016
56 1 0.645735 0.0143643 0.0219751
60 1 0.69773 0.0179342 0.0275189
657 1 0.197266 0.00115469 0.101891
64 1 0.74864 0.0161556 0.0261638
3289 1 0.10343 0.0494091 0.498585
2265 1 0.309205 0.00719476 0.349347
68 1 0.796369 0.0145882 0.0226149
2613 1 0.652818 0.00337468 0.399896
72 1 0.856499 0.0224646 0.0223805
76 1 0.903712 0.0143723 0.0231004
4 1 0.00753454 0.0146721 0.0247089
80 1 0.957734 0.0159016 0.0241317
1981 1 0.748725 -1.40343e-05 0.300152
3 1 0.0327663 0.0390386 0.0204414
3366 1 0.0725231 0.123669 0.49898
7 1 0.0831934 0.0415371 0.0220998
11 1 0.128148 0.0409189 0.0280787
15 1 0.173089 0.042867 0.0262012
96 1 0.152737 0.0663167 0.0302776
645 1 0.0568327 0.00362991 0.0998893
19 1 0.224105 0.0409242 0.0239323
23 1 0.279473 0.0400311 0.0274637
3298 1 0.226207 0.0740328 0.498493
27 1 0.322407 0.0493319 0.0257863
9673 1 0.902992 0.196755 0.496771
31 1 0.377259 0.045942 0.0222946
1621 1 0.249769 0.00567546 0.244944
35 1 0.424695 0.0427086 0.0275502
3293 1 0.151207 0.0505078 0.499307
39 1 0.473415 0.0428096 0.0293484
43 1 0.520591 0.0443839 0.02421
124 1 0.500833 0.0689984 0.0218999
47 1 0.573173 0.0372552 0.0242138
128 1 0.547329 0.0671293 0.0193506
51 1 0.618552 0.0380701 0.0257765
1281 1 0.998438 0.000340336 0.196723
55 1 0.675018 0.0398028 0.0235499
140 1 0.697239 0.065896 0.0234425
3205 1 0.0544265 0.000963373 0.495711
158 1 0.971412 0.069967 0.000318428
59 1 0.728867 0.0393378 0.0242727
144 1 0.749058 0.0643194 0.0222955
63 1 0.771832 0.0424422 0.0214174
38 1 0.482884 0.0190745 0.00154665
67 1 0.824369 0.0437887 0.0227438
71 1 0.875819 0.0455602 0.0282519
152 1 0.851051 0.0692974 0.0230947
26 1 0.323687 0.0287498 0.00250712
75 1 0.937062 0.0425073 0.0213734
156 1 0.907763 0.0671687 0.0277036
160 1 0.962066 0.0639417 0.0275934
79 1 0.980984 0.0396275 0.0249023
88 1 0.0544548 0.066894 0.0252485
83 1 0.0284429 0.0892683 0.0220711
209 1 0.599565 0.101925 0.000725513
92 1 0.104484 0.0675283 0.0273996
87 1 0.0825025 0.0909684 0.0249657
91 1 0.131431 0.093101 0.0268621
246 1 0.0799309 0.177037 0.00110134
100 1 0.20675 0.0646561 0.0280676
95 1 0.183125 0.0902148 0.0311312
99 1 0.231158 0.0914562 0.0230051
1661 1 0.754089 0.000296569 0.249892
104 1 0.249872 0.0650934 0.0249179
103 1 0.277118 0.0988693 0.0306125
54 1 0.669339 0.0213997 0.00243659
112 1 0.350295 0.0705182 0.0256397
108 1 0.294853 0.0718163 0.0279652
107 1 0.317357 0.0946215 0.027061
134 1 0.675157 0.0731502 0.000242593
116 1 0.400417 0.070731 0.0297753
111 1 0.380264 0.0971564 0.0260211
120 1 0.446556 0.0702489 0.0277455
115 1 0.42573 0.096718 0.0226145
119 1 0.472747 0.0903662 0.0250153
1609 1 0.0974605 0.000760832 0.245204
123 1 0.528536 0.0901691 0.0275564
3493 1 0.647959 0.147344 0.49719
2929 1 0.603453 0.000962269 0.449397
127 1 0.57868 0.0886027 0.0216997
2309 1 0.851153 0.000977578 0.354111
132 1 0.596528 0.0624096 0.0216095
131 1 0.628388 0.0855938 0.02223
1645 1 0.546391 0.00102108 0.246773
136 1 0.648818 0.0632764 0.0293886
135 1 0.678169 0.0885717 0.0290659
2281 1 0.507351 0.00530464 0.348039
357 1 0.447231 0.00288719 0.049243
139 1 0.7246 0.0936246 0.0214838
3342 1 0.781309 0.0743784 0.49476
148 1 0.799582 0.0653205 0.0193926
143 1 0.773115 0.0909296 0.0207841
82 1 0.0301637 0.072005 0.00150745
147 1 0.82423 0.0923794 0.0239289
151 1 0.882934 0.0922066 0.0283754
155 1 0.933109 0.089902 0.0220428
84 1 0.0048351 0.0628204 0.0218302
159 1 0.981515 0.0908327 0.0164194
164 1 0.000181973 0.113651 0.0226109
168 1 0.052481 0.115835 0.0218964
174 1 0.179767 0.126145 0.000527663
172 1 0.0990252 0.116473 0.025805
3346 1 0.827647 0.0721371 0.498096
176 1 0.149653 0.119366 0.028341
6409 1 0.110594 0.199004 0.00217421
2261 1 0.259242 0.00562918 0.349344
180 1 0.197724 0.11856 0.0251877
184 1 0.248611 0.119734 0.0223216
188 1 0.29946 0.120431 0.0226424
192 1 0.346788 0.118935 0.0282345
3318 1 0.475278 0.0764066 0.498999
196 1 0.39799 0.121036 0.0250464
200 1 0.445301 0.120201 0.0220157
204 1 0.498301 0.11753 0.0274899
310 1 0.872984 0.17383 0.00534295
208 1 0.544178 0.117815 0.0299442
212 1 0.598807 0.113983 0.0261881
216 1 0.643952 0.111812 0.0278521
220 1 0.687651 0.114919 0.0229602
224 1 0.736678 0.116584 0.0210603
1325 1 0.552433 0.000725627 0.19593
228 1 0.787561 0.115969 0.0302218
1953 1 0.40508 0.0023124 0.298458
2285 1 0.560141 0.00311716 0.345112
232 1 0.855701 0.116574 0.0255103
236 1 0.91056 0.115942 0.0231243
1941 1 0.252625 0.00440718 0.304634
240 1 0.957001 0.116962 0.0232191
1665 1 0.80386 -2.54528e-05 0.245921
345 1 0.30147 0.0025105 0.0556967
8641 1 0.992034 0.198862 0.349563
163 1 0.0201317 0.138659 0.0260361
1937 1 0.204507 0.00277266 0.296268
248 1 0.0588259 0.166405 0.0235735
167 1 0.0731369 0.140413 0.0293791
252 1 0.104438 0.166484 0.0275345
1945 1 0.302796 0.00133014 0.297778
171 1 0.121873 0.14336 0.021218
175 1 0.179366 0.14282 0.0236899
179 1 0.225146 0.143166 0.0290643
183 1 0.271721 0.142365 0.0244112
2593 1 0.402565 0.00592385 0.399008
187 1 0.320783 0.140784 0.0236089
191 1 0.373589 0.141682 0.0250256
195 1 0.421071 0.141927 0.0257754
280 1 0.459407 0.165236 0.0203698
199 1 0.471688 0.140996 0.0221894
203 1 0.526441 0.140879 0.0233921
284 1 0.504208 0.166828 0.0256941
207 1 0.574707 0.141148 0.0262815
211 1 0.625258 0.139257 0.0263847
215 1 0.671314 0.141874 0.0233344
219 1 0.718201 0.141636 0.0269132
1933 1 0.149775 0.00127877 0.300158
223 1 0.770861 0.143924 0.0259991
227 1 0.820004 0.140072 0.022959
231 1 0.879118 0.141323 0.0224914
312 1 0.849124 0.165345 0.0261998
3262 1 0.775911 0.0217472 0.49862
235 1 0.924365 0.143634 0.0258459
316 1 0.907313 0.169318 0.0246369
244 1 0.0117652 0.165753 0.023186
239 1 0.973389 0.14224 0.0238498
320 1 0.957009 0.166717 0.0243105
243 1 0.029096 0.191699 0.0206338
247 1 0.0757721 0.190684 0.0240971
2581 1 0.260213 0.000453735 0.399536
3200 1 0.943145 0.163555 0.475045
256 1 0.151023 0.165461 0.0196125
255 1 0.180973 0.192995 0.0223007
251 1 0.134412 0.189865 0.0238477
1357 1 0.944546 5.28488e-05 0.196839
259 1 0.225117 0.19366 0.0256409
260 1 0.203759 0.167436 0.0263034
3486 1 0.575854 0.172661 0.499437
263 1 0.275932 0.191296 0.024396
264 1 0.252203 0.167035 0.0235655
268 1 0.303866 0.167129 0.022635
267 1 0.326307 0.195535 0.0204389
272 1 0.349814 0.164901 0.0223494
276 1 0.400818 0.170303 0.0241029
271 1 0.375486 0.195932 0.0214824
275 1 0.429279 0.192206 0.0206812
279 1 0.475207 0.189462 0.0239387
283 1 0.52698 0.19072 0.0247995
288 1 0.552572 0.167536 0.0263985
287 1 0.574954 0.190364 0.0258617
973 1 0.15216 0.00250561 0.149981
292 1 0.597595 0.166289 0.0251117
291 1 0.622688 0.195633 0.0277534
300 1 0.694222 0.167321 0.0255162
296 1 0.643226 0.167997 0.0234173
295 1 0.666963 0.195162 0.0271266
2629 1 0.848081 0.000914834 0.402151
304 1 0.742544 0.168926 0.0271207
299 1 0.713517 0.190942 0.0256889
3330 1 0.627593 0.0732799 0.499896
303 1 0.774284 0.190215 0.0218725
308 1 0.795134 0.167492 0.0249852
1293 1 0.143354 0.00494013 0.200331
307 1 0.826819 0.188317 0.0239639
311 1 0.878377 0.191313 0.0273002
315 1 0.925009 0.193183 0.0224073
319 1 0.975958 0.191933 0.0169117
2909 1 0.354501 0.00178991 0.448099
322 1 0.0247658 0.0267025 0.0489227
326 1 0.0755978 0.0227547 0.0492428
2269 1 0.354386 0.00413833 0.352265
330 1 0.125108 0.0251492 0.0523471
334 1 0.171429 0.0217639 0.0475946
338 1 0.221962 0.0240979 0.0532929
340 1 0.195883 0.017206 0.0768302
3297 1 0.200118 0.0492723 0.498414
342 1 0.273675 0.0275935 0.0501587
346 1 0.324171 0.0257614 0.048176
2609 1 0.601697 0.0038835 0.40479
3221 1 0.257397 0.0011721 0.494616
350 1 0.376786 0.0248855 0.0521834
354 1 0.424253 0.0259965 0.0516676
1605 1 0.0467662 0.00498315 0.245417
358 1 0.474617 0.0259796 0.0473981
362 1 0.527461 0.0244629 0.0519176
366 1 0.576688 0.0240877 0.0504701
370 1 0.619744 0.0197789 0.0526688
2953 1 0.900681 0.000704608 0.452656
374 1 0.673746 0.024297 0.0537004
378 1 0.732278 0.0212779 0.049774
382 1 0.778633 0.0223524 0.0468898
28115 1 0.431833 0.00126919 0.37131
386 1 0.822857 0.0233688 0.0473204
390 1 0.879047 0.0252465 0.0477224
3258 1 0.725805 0.022633 0.496358
394 1 0.929233 0.0238932 0.0454745
396 1 0.903687 0.0193264 0.0732644
2293 1 0.647152 0.00347591 0.353316
400 1 0.951514 0.0168531 0.0747157
398 1 0.971861 0.0214427 0.0524898
405 1 0.0508508 0.0477639 0.0447236
404 1 0.000762092 0.0686269 0.0761923
409 1 0.098599 0.0476242 0.0505439
413 1 0.149551 0.0514539 0.0502199
416 1 0.149041 0.0640025 0.0758836
417 1 0.198792 0.0507099 0.0520401
421 1 0.247002 0.0512564 0.0477563
425 1 0.298728 0.0496325 0.0524953
429 1 0.35455 0.0493355 0.0472121
433 1 0.401626 0.048694 0.0498042
437 1 0.447488 0.0528402 0.0494366
359 1 0.472282 0.0433571 0.0763226
441 1 0.5002 0.047965 0.0531515
445 1 0.546103 0.0490545 0.0489349
449 1 0.598002 0.0470359 0.0475267
453 1 0.646408 0.0452503 0.0487706
457 1 0.697452 0.0455476 0.0443845
461 1 0.742185 0.0495292 0.0483043
465 1 0.792207 0.0480723 0.0490557
469 1 0.844822 0.0487081 0.0486229
473 1 0.914316 0.0494873 0.0495535
395 1 0.930996 0.038958 0.0733119
401 1 0.00732496 0.0542735 0.0520846
477 1 0.960973 0.0474943 0.0509881
402 1 0.0258112 0.0785979 0.0467877
481 1 0.00636877 0.100901 0.0479269
485 1 0.0515522 0.104156 0.0500821
406 1 0.0727975 0.075399 0.0509999
489 1 0.103269 0.0985007 0.049345
410 1 0.120839 0.0731184 0.0521818
414 1 0.171379 0.0771904 0.0538387
418 1 0.222902 0.0794029 0.0508864
422 1 0.271212 0.0811832 0.052225
426 1 0.319527 0.0738909 0.049218
509 1 0.346902 0.098678 0.0456822
430 1 0.374396 0.0724936 0.0505126
432 1 0.351387 0.071351 0.0746473
434 1 0.432001 0.0816009 0.0501891
435 1 0.425111 0.0929265 0.0769166
438 1 0.476029 0.0754207 0.0498355
443 1 0.525437 0.0890153 0.0760712
442 1 0.522567 0.0730425 0.0493309
446 1 0.57498 0.0728806 0.0505231
447 1 0.57981 0.0884925 0.076861
450 1 0.624496 0.0705501 0.0506874
454 1 0.677687 0.0724852 0.0536371
537 1 0.703588 0.102426 0.0476543
458 1 0.723263 0.0749972 0.0455997
541 1 0.754689 0.100487 0.0472747
462 1 0.773298 0.0735689 0.0451272
545 1 0.799065 0.0966213 0.0502258
466 1 0.822159 0.071635 0.0452355
470 1 0.8778 0.0712646 0.0495658
549 1 0.857681 0.0960829 0.0528386
474 1 0.925815 0.0790672 0.0509398
553 1 0.903244 0.103074 0.0512181
478 1 0.97686 0.0791949 0.0500644
482 1 0.0275537 0.125858 0.0508414
486 1 0.0784434 0.123072 0.0519335
490 1 0.124627 0.127628 0.0497757
493 1 0.150141 0.104626 0.0539934
494 1 0.176718 0.127294 0.0477425
497 1 0.204253 0.103166 0.0535549
498 1 0.23003 0.126659 0.0508189
501 1 0.249082 0.103049 0.0513731
502 1 0.278371 0.128233 0.0455927
504 1 0.25432 0.120378 0.0746787
505 1 0.298457 0.103491 0.0526246
506 1 0.326779 0.126458 0.0489361
513 1 0.400082 0.0983794 0.0524027
510 1 0.375957 0.123178 0.0509635
516 1 0.400741 0.117079 0.0734389
517 1 0.448587 0.105315 0.0503175
514 1 0.42065 0.125799 0.05186
521 1 0.500924 0.0996151 0.0522239
518 1 0.473695 0.127357 0.0493274
522 1 0.520284 0.126848 0.0519698
525 1 0.552713 0.102332 0.0508522
526 1 0.570497 0.125191 0.0518678
529 1 0.598133 0.0964924 0.0480523
530 1 0.619541 0.12408 0.0508918
533 1 0.650145 0.098569 0.0493139
534 1 0.675829 0.12681 0.0518126
538 1 0.72064 0.127048 0.0505629
542 1 0.766615 0.128488 0.0549186
546 1 0.82329 0.122697 0.0455006
550 1 0.880101 0.127004 0.048418
554 1 0.935186 0.125923 0.0480149
557 1 0.957702 0.10147 0.0476943
558 1 0.981475 0.127183 0.0469349
565 1 0.0490449 0.152032 0.0479792
561 1 0.00507273 0.15378 0.0476445
569 1 0.102334 0.148826 0.0520561
487 1 0.0642789 0.14002 0.077433
573 1 0.148939 0.15047 0.0456259
577 1 0.198385 0.152805 0.0494929
581 1 0.252462 0.150455 0.0489506
585 1 0.304595 0.151086 0.0473319
589 1 0.350075 0.151068 0.0488979
507 1 0.326596 0.143546 0.0745639
593 1 0.398779 0.149811 0.0479379
596 1 0.402445 0.169955 0.070157
597 1 0.447674 0.149254 0.0481511
515 1 0.423411 0.145466 0.071391
601 1 0.495312 0.150508 0.0458793
605 1 0.545464 0.152323 0.0505111
609 1 0.595414 0.148794 0.0478488
613 1 0.651504 0.151164 0.050474
617 1 0.698462 0.15165 0.0506677
621 1 0.741479 0.152893 0.0511715
625 1 0.793721 0.151775 0.049133
629 1 0.849495 0.145695 0.0470366
633 1 0.906738 0.153834 0.0521869
637 1 0.953331 0.150475 0.0492401
562 1 0.0335388 0.182044 0.0441822
8693 1 0.65063 0.198188 0.348087
566 1 0.0773842 0.175413 0.0505273
570 1 0.122464 0.177006 0.049911
574 1 0.173017 0.174191 0.0484283
578 1 0.223588 0.175682 0.0484311
582 1 0.271716 0.173059 0.0460502
586 1 0.324384 0.174498 0.0446103
105 1 0.299534 0.0505333 0.00190178
590 1 0.378348 0.17368 0.0470027
594 1 0.43104 0.177056 0.0440725
598 1 0.479864 0.176126 0.0474187
602 1 0.524522 0.174559 0.047312
599 1 0.479577 0.19289 0.0745642
606 1 0.569398 0.175156 0.0519558
607 1 0.574745 0.192545 0.0770076
610 1 0.620347 0.173391 0.051027
614 1 0.670282 0.175893 0.0465557
618 1 0.716158 0.181507 0.0505118
624 1 0.753414 0.168216 0.0737504
622 1 0.769689 0.175782 0.0482006
626 1 0.818315 0.176614 0.0481855
630 1 0.874712 0.17439 0.0485493
634 1 0.928717 0.178581 0.0470745
234 1 0.92549 0.12739 0.000729206
638 1 0.983448 0.176511 0.0468
977 1 0.200238 0.00131965 0.148233
1633 1 0.401119 7.68187e-05 0.249554
328 1 0.0501732 0.0170472 0.0755482
642 1 0.0228751 0.0244839 0.0961482
324 1 9.98134e-05 0.0172321 0.0734519
332 1 0.101435 0.0133315 0.0747959
646 1 0.0686361 0.0271374 0.103952
336 1 0.150413 0.0142398 0.0754464
650 1 0.124015 0.023161 0.100858
1013 1 0.653006 0.00430798 0.15122
654 1 0.170642 0.0284439 0.0999833
658 1 0.220464 0.0234717 0.0991221
717 1 0.952618 0.00366156 0.0990744
8961 1 0.00327698 0.197785 0.39989
344 1 0.242625 0.0192908 0.0754295
662 1 0.267902 0.0279406 0.0988667
348 1 0.290164 0.0205722 0.0772175
666 1 0.319256 0.0257551 0.0999021
1301 1 0.255144 0.00218755 0.200174
1617 1 0.193119 0.00162671 0.244587
352 1 0.34275 0.0204266 0.0733986
356 1 0.398899 0.0194014 0.0735225
670 1 0.36913 0.0240146 0.0966538
9665 1 0.793876 0.196647 0.494955
661 1 0.247739 0.000553501 0.101423
360 1 0.448154 0.0148533 0.0773799
674 1 0.422255 0.028914 0.101514
364 1 0.496265 0.0144284 0.0746569
678 1 0.474597 0.0249934 0.0991345
682 1 0.52717 0.0230546 0.102235
368 1 0.550567 0.0158014 0.0761486
686 1 0.580278 0.0290706 0.100735
3474 1 0.432293 0.177191 0.496098
372 1 0.599714 0.0119605 0.0799707
690 1 0.625101 0.026768 0.0978905
8013 1 0.153834 0.198928 0.24941
1653 1 0.649553 0.00496782 0.250538
376 1 0.654339 0.0149336 0.0750727
380 1 0.701663 0.0158861 0.0797176
694 1 0.674382 0.0236246 0.0994156
384 1 0.749122 0.0187095 0.0752301
698 1 0.726328 0.0269818 0.102348
701 1 0.744527 0.00357783 0.0967866
361 1 0.49281 0.00103366 0.0519255
388 1 0.800987 0.0196447 0.0720844
702 1 0.784602 0.0234623 0.0965484
392 1 0.844246 0.019085 0.07649
706 1 0.830427 0.0237124 0.100488
710 1 0.879816 0.0182133 0.0957536
714 1 0.92596 0.0272576 0.0985164
718 1 0.976665 0.0293541 0.0992379
323 1 0.0245486 0.0408657 0.0730729
725 1 0.0509433 0.0523793 0.0985549
721 1 0.00342988 0.0530532 0.0993191
408 1 0.0506298 0.0668765 0.075883
412 1 0.0969187 0.0663747 0.0741496
327 1 0.0739089 0.0437406 0.0736936
729 1 0.0958816 0.0503025 0.103331
726 1 0.0746232 0.075516 0.0975537
331 1 0.127558 0.037872 0.0752643
733 1 0.14252 0.0487265 0.103233
335 1 0.173459 0.040594 0.0754438
339 1 0.224019 0.0412684 0.0741947
737 1 0.19244 0.0524312 0.099162
343 1 0.270258 0.042877 0.0710139
741 1 0.239397 0.0478598 0.0996582
347 1 0.321723 0.0459114 0.0744929
745 1 0.295929 0.0497838 0.100887
749 1 0.343183 0.0486713 0.102743
351 1 0.371055 0.0459378 0.0748963
753 1 0.395468 0.0514431 0.097933
355 1 0.424157 0.0423277 0.0761502
757 1 0.443938 0.0526249 0.101861
363 1 0.519214 0.0405415 0.078346
761 1 0.495888 0.0457841 0.101718
444 1 0.498221 0.0668404 0.0741272
367 1 0.574626 0.0412909 0.0739054
765 1 0.545486 0.0473577 0.101898
371 1 0.620991 0.0365766 0.0727266
769 1 0.599825 0.0515826 0.0996751
375 1 0.678766 0.03973 0.0725863
773 1 0.649371 0.0484694 0.095652
777 1 0.695197 0.0473453 0.0995513
379 1 0.72483 0.0409192 0.0721269
464 1 0.7534 0.0651763 0.0720953
781 1 0.754351 0.0484366 0.0953627
383 1 0.770948 0.0419974 0.0727338
387 1 0.819457 0.0429094 0.0742012
785 1 0.79963 0.0499751 0.0994504
468 1 0.805617 0.0668204 0.0733451
391 1 0.879125 0.0437192 0.0687388
472 1 0.850625 0.0659102 0.076787
789 1 0.85452 0.0459706 0.0954972
793 1 0.901801 0.0468701 0.096956
476 1 0.902768 0.0630087 0.0732484
399 1 0.983964 0.0401123 0.0741977
797 1 0.952253 0.0530049 0.0958433
480 1 0.947647 0.0677778 0.0755779
403 1 0.0290075 0.0909731 0.0755415
722 1 0.0223472 0.0775885 0.100088
805 1 0.0573179 0.102913 0.0994229
801 1 0.00145173 0.101886 0.0997997
407 1 0.0764356 0.0940229 0.0734205
809 1 0.0986785 0.100751 0.0993296
411 1 0.123437 0.0892413 0.0714502
415 1 0.174449 0.0930457 0.0752739
730 1 0.123603 0.0732382 0.095994
734 1 0.171991 0.0775592 0.102431
420 1 0.199792 0.0684716 0.077475
419 1 0.224715 0.0931881 0.0788756
738 1 0.221635 0.0791468 0.0997152
424 1 0.244813 0.0670567 0.0738032
423 1 0.269848 0.0897147 0.0753919
742 1 0.267048 0.0752645 0.102913
428 1 0.301889 0.0705323 0.0766361
427 1 0.322581 0.0934818 0.0735955
746 1 0.328491 0.0732921 0.101801
825 1 0.301768 0.100941 0.101533
436 1 0.401916 0.0648412 0.072835
431 1 0.379385 0.0893154 0.0750229
750 1 0.375973 0.075682 0.0994267
829 1 0.35128 0.0995757 0.0946459
440 1 0.451041 0.0670983 0.0731008
754 1 0.421074 0.0768112 0.0999792
837 1 0.455311 0.0984068 0.0997967
439 1 0.470314 0.0913668 0.073499
758 1 0.474411 0.0751188 0.0986674
762 1 0.522934 0.0739926 0.10362
448 1 0.547982 0.0659051 0.0736482
766 1 0.570353 0.0725562 0.102202
845 1 0.554561 0.0990922 0.103738
452 1 0.596739 0.0616923 0.0723528
451 1 0.622648 0.0943885 0.0710172
770 1 0.627981 0.0739947 0.0950581
849 1 0.601596 0.0966549 0.100388
456 1 0.644954 0.065779 0.0718164
460 1 0.703817 0.0650755 0.0755967
455 1 0.671633 0.0915234 0.0764899
774 1 0.678885 0.0726458 0.101481
459 1 0.726855 0.0888161 0.0712522
778 1 0.727743 0.0704536 0.0999519
463 1 0.777053 0.0876764 0.0724506
782 1 0.777924 0.0751496 0.0954939
865 1 0.799132 0.0989657 0.0951834
467 1 0.829252 0.0887289 0.0720666
786 1 0.827171 0.0748251 0.0975274
471 1 0.886089 0.0879899 0.0720827
790 1 0.878539 0.0729796 0.0982792
475 1 0.929214 0.0972936 0.0732373
794 1 0.928889 0.0776744 0.100332
873 1 0.898877 0.0965906 0.0947845
479 1 0.972065 0.0920116 0.0735739
798 1 0.973986 0.0787902 0.097737
877 1 0.948961 0.103185 0.0970251
484 1 0.00263934 0.118676 0.0758691
488 1 0.0457502 0.118169 0.0745257
802 1 0.0302288 0.124578 0.101197
492 1 0.100406 0.116586 0.0758661
806 1 0.077713 0.127748 0.102116
813 1 0.152021 0.103462 0.0986641
496 1 0.148909 0.122039 0.0737511
810 1 0.123642 0.124788 0.103719
814 1 0.172178 0.127148 0.101089
817 1 0.196429 0.10602 0.100928
500 1 0.195759 0.118717 0.07324
818 1 0.2276 0.123386 0.0963631
821 1 0.25323 0.102844 0.103026
822 1 0.270166 0.126091 0.0988764
508 1 0.294601 0.120383 0.0749016
512 1 0.347487 0.119054 0.0742144
826 1 0.320991 0.127154 0.0980998
833 1 0.403829 0.102396 0.0970025
830 1 0.377465 0.125869 0.0962654
520 1 0.445791 0.116438 0.073217
834 1 0.429899 0.123925 0.0984026
838 1 0.478654 0.122632 0.0993512
524 1 0.492528 0.116053 0.0746377
841 1 0.505432 0.098978 0.0984978
842 1 0.52253 0.123718 0.0972939
528 1 0.539079 0.115263 0.0754903
846 1 0.573852 0.122692 0.0979238
532 1 0.597995 0.118452 0.0714589
536 1 0.650458 0.119205 0.0768219
850 1 0.623756 0.122675 0.0999778
540 1 0.699098 0.111695 0.0763482
853 1 0.657744 0.101208 0.100625
857 1 0.705699 0.0999026 0.0985207
854 1 0.671198 0.126526 0.102261
544 1 0.747946 0.114772 0.0753249
861 1 0.750366 0.0961212 0.0939743
858 1 0.730926 0.124481 0.100511
548 1 0.80126 0.113863 0.0710536
862 1 0.779362 0.123208 0.0951231
869 1 0.854726 0.0981916 0.0975747
866 1 0.825301 0.124304 0.0992685
552 1 0.846944 0.116416 0.071069
870 1 0.870446 0.123408 0.0953555
556 1 0.898181 0.119033 0.0728015
874 1 0.919211 0.122411 0.0947326
560 1 0.956137 0.115801 0.0738977
878 1 0.9826 0.127708 0.0994719
483 1 0.021934 0.141951 0.075571
564 1 0.999231 0.167112 0.0738426
568 1 0.0430675 0.166847 0.073481
885 1 0.0512429 0.149958 0.1054
889 1 0.0943497 0.150264 0.10178
491 1 0.119313 0.143497 0.0797745
495 1 0.172002 0.147692 0.0758934
893 1 0.145465 0.152928 0.101914
499 1 0.224288 0.144708 0.0740658
897 1 0.199128 0.149772 0.0988866
503 1 0.272567 0.144441 0.0740073
901 1 0.248139 0.149364 0.097898
905 1 0.302567 0.15003 0.0997579
909 1 0.352349 0.151495 0.0939952
511 1 0.3768 0.141801 0.0708421
913 1 0.405562 0.151661 0.096976
917 1 0.451837 0.149997 0.0976929
519 1 0.467987 0.140266 0.0727178
523 1 0.515845 0.139985 0.0766382
921 1 0.498417 0.147612 0.100003
527 1 0.558535 0.140147 0.0740158
925 1 0.546664 0.148682 0.104224
531 1 0.622182 0.141872 0.0730915
612 1 0.593517 0.161982 0.0733623
929 1 0.588729 0.144444 0.102328
535 1 0.667565 0.14139 0.0763267
933 1 0.638986 0.147016 0.100202
937 1 0.696046 0.147672 0.0994737
616 1 0.652085 0.170056 0.0708855
539 1 0.718304 0.134817 0.0767699
941 1 0.749839 0.151112 0.100738
543 1 0.767361 0.141697 0.0770743
945 1 0.804599 0.148484 0.0991215
547 1 0.823295 0.137685 0.0687598
551 1 0.87251 0.141701 0.0733294
632 1 0.851312 0.16559 0.0733751
949 1 0.848084 0.149722 0.0998272
555 1 0.924368 0.141349 0.0761006
953 1 0.899137 0.148063 0.10118
559 1 0.973988 0.144805 0.0757994
881 1 0.000775678 0.149126 0.100086
957 1 0.948214 0.152313 0.0978339
882 1 0.0207353 0.175167 0.097317
563 1 0.0269058 0.190682 0.0745828
572 1 0.0957503 0.166092 0.0748364
567 1 0.0716951 0.189681 0.0718083
886 1 0.0728113 0.172741 0.0983569
8677 1 0.453168 0.196708 0.349139
576 1 0.147843 0.167723 0.0725573
571 1 0.122138 0.193445 0.073179
890 1 0.121835 0.174932 0.0965986
1929 1 0.0969637 0.00318626 0.301765
580 1 0.196617 0.172633 0.0736994
575 1 0.171452 0.195159 0.0739001
894 1 0.174035 0.174341 0.100065
579 1 0.219836 0.195433 0.0729558
898 1 0.223568 0.174699 0.0980146
61 1 0.746501 -5.75657e-05 0.00143091
583 1 0.278053 0.192156 0.0744203
584 1 0.253232 0.170699 0.0703938
902 1 0.277158 0.174354 0.0979179
592 1 0.348336 0.168133 0.0699936
587 1 0.330681 0.19481 0.0720725
588 1 0.299726 0.171091 0.0683394
906 1 0.331019 0.178069 0.0941242
591 1 0.384423 0.190649 0.0717004
910 1 0.38242 0.1782 0.0971817
3199 1 0.978487 0.191882 0.474353
600 1 0.449759 0.168177 0.0711058
595 1 0.433729 0.192978 0.0730006
914 1 0.430818 0.174781 0.0954898
274 1 0.4252 0.175654 0.000394865
603 1 0.524698 0.191343 0.0706583
604 1 0.503205 0.165338 0.0719409
918 1 0.479358 0.175492 0.0998154
922 1 0.523853 0.170116 0.0978631
608 1 0.545651 0.168979 0.0753861
926 1 0.570089 0.172103 0.101896
611 1 0.622302 0.19281 0.073758
930 1 0.619934 0.169863 0.0968952
615 1 0.679765 0.195316 0.0721337
934 1 0.671623 0.171241 0.0996386
7685 1 0.0546503 0.200013 0.199627
620 1 0.696054 0.163659 0.0752851
619 1 0.725294 0.191712 0.0770987
938 1 0.724658 0.177234 0.100178
623 1 0.776153 0.193774 0.073765
628 1 0.803218 0.163266 0.0722654
942 1 0.777403 0.17693 0.101245
627 1 0.824658 0.189423 0.0750357
946 1 0.823814 0.173872 0.0975557
631 1 0.879374 0.188749 0.076362
950 1 0.875122 0.17196 0.102822
3242 1 0.530217 0.0279634 0.496523
635 1 0.933529 0.19253 0.0753624
636 1 0.903257 0.16459 0.0788881
954 1 0.925523 0.175449 0.0974118
3350 1 0.871965 0.0752975 0.498765
640 1 0.950308 0.170125 0.0676771
639 1 0.978736 0.192333 0.0741268
958 1 0.969071 0.17561 0.0957793
3202 1 0.0288117 0.0220228 0.497301
1949 1 0.354171 0.00136669 0.298978
648 1 0.047468 0.0138643 0.124063
652 1 0.0963318 0.0163044 0.121751
656 1 0.150881 0.0159717 0.123013
660 1 0.197657 0.0153612 0.125839
664 1 0.241026 0.0197742 0.125997
668 1 0.300055 0.0185022 0.124832
672 1 0.346315 0.0198938 0.124258
676 1 0.400663 0.0141171 0.123588
680 1 0.453749 0.0176464 0.127194
684 1 0.499548 0.0138307 0.122057
688 1 0.554761 0.0170216 0.124694
692 1 0.599539 0.0155486 0.122841
696 1 0.652496 0.0140304 0.121366
700 1 0.708926 0.00966981 0.123546
1625 1 0.300313 0.00402372 0.25014
704 1 0.759819 0.0129928 0.123206
708 1 0.80454 0.0136327 0.121084
712 1 0.851128 0.016259 0.124116
716 1 0.898912 0.0140709 0.127799
720 1 0.947138 0.0175592 0.126388
644 1 0.993412 0.0186427 0.123902
643 1 0.0225774 0.0435098 0.120477
728 1 0.0527607 0.0668971 0.121675
724 1 0.998164 0.0706809 0.121854
647 1 0.0736608 0.0412985 0.124473
651 1 0.124473 0.0401986 0.127808
655 1 0.168378 0.0428707 0.124494
736 1 0.14962 0.069722 0.124768
659 1 0.212644 0.0396894 0.124352
740 1 0.201993 0.0691265 0.126358
663 1 0.272744 0.0424764 0.122059
667 1 0.322002 0.0452553 0.127315
748 1 0.300077 0.0691682 0.127933
671 1 0.377592 0.0366934 0.119317
752 1 0.352134 0.0652566 0.12568
756 1 0.39641 0.0644613 0.12548
675 1 0.426187 0.0410703 0.126332
760 1 0.453526 0.064261 0.123942
679 1 0.479901 0.0386807 0.127535
683 1 0.529645 0.0374076 0.126963
764 1 0.504171 0.0639462 0.12512
687 1 0.581381 0.0442877 0.123242
691 1 0.631312 0.0393839 0.124467
695 1 0.682435 0.0369908 0.126567
780 1 0.704694 0.0626796 0.127979
699 1 0.729321 0.0364291 0.12798
703 1 0.777227 0.0407656 0.124391
707 1 0.826401 0.0372186 0.126193
711 1 0.880704 0.0381237 0.124339
792 1 0.8499 0.06066 0.116945
715 1 0.932747 0.0433687 0.119167
796 1 0.901371 0.0657807 0.120773
719 1 0.97705 0.0435536 0.122315
800 1 0.951884 0.0657806 0.123034
723 1 0.0240876 0.095233 0.125392
732 1 0.0981303 0.0674092 0.122724
727 1 0.0805776 0.0905936 0.126452
731 1 0.127724 0.0930419 0.123738
735 1 0.17591 0.0926307 0.122909
739 1 0.225378 0.0947579 0.126315
744 1 0.245179 0.0644141 0.126133
743 1 0.27893 0.0948676 0.124578
747 1 0.326564 0.0947376 0.124705
751 1 0.370168 0.0920482 0.124409
755 1 0.425358 0.0900961 0.124286
759 1 0.481085 0.0899515 0.123686
763 1 0.528574 0.0911714 0.126954
768 1 0.550329 0.0648659 0.126781
767 1 0.582131 0.0882562 0.128394
772 1 0.608771 0.0676568 0.12511
771 1 0.629985 0.0921166 0.123668
776 1 0.654218 0.0623291 0.121564
775 1 0.67947 0.0886879 0.124939
784 1 0.757789 0.0660783 0.121771
779 1 0.72725 0.0872214 0.123732
788 1 0.805233 0.0627728 0.126068
783 1 0.777844 0.0895019 0.124982
787 1 0.831559 0.0905975 0.123598
791 1 0.88113 0.0902981 0.119069
795 1 0.932433 0.0939366 0.120558
799 1 0.979334 0.095295 0.127061
808 1 0.0547247 0.116221 0.125905
804 1 0.997676 0.119816 0.126752
812 1 0.100641 0.11875 0.130451
816 1 0.150082 0.116539 0.12376
820 1 0.200236 0.116462 0.126497
824 1 0.253227 0.12014 0.124464
828 1 0.301482 0.11885 0.122331
832 1 0.352425 0.116521 0.121534
836 1 0.403672 0.115337 0.120685
840 1 0.453908 0.117186 0.122061
844 1 0.504237 0.112447 0.122836
848 1 0.552995 0.113255 0.124249
852 1 0.601904 0.110943 0.123487
856 1 0.650219 0.117292 0.127076
860 1 0.703161 0.11432 0.125497
864 1 0.756385 0.114527 0.121079
868 1 0.8013 0.11361 0.122551
872 1 0.85302 0.118224 0.119385
876 1 0.898396 0.114501 0.119332
880 1 0.950173 0.119146 0.122039
803 1 0.0279238 0.13728 0.125656
807 1 0.0778551 0.141463 0.126781
892 1 0.102293 0.167642 0.124748
811 1 0.121473 0.141142 0.124906
815 1 0.167968 0.139968 0.126362
896 1 0.152666 0.170493 0.124881
819 1 0.221488 0.141454 0.123124
823 1 0.282049 0.144361 0.121792
827 1 0.336763 0.142773 0.122185
912 1 0.351185 0.168309 0.119427
831 1 0.385585 0.142499 0.119807
916 1 0.409444 0.169468 0.119923
835 1 0.437204 0.142779 0.121334
839 1 0.486656 0.138039 0.127095
843 1 0.531143 0.136979 0.125886
924 1 0.505029 0.163373 0.125057
847 1 0.573691 0.142826 0.128433
851 1 0.620341 0.137312 0.125076
932 1 0.60314 0.163208 0.123344
855 1 0.670845 0.144837 0.122861
940 1 0.697062 0.164054 0.124582
859 1 0.723211 0.140061 0.128867
863 1 0.776882 0.137895 0.128254
948 1 0.794708 0.166388 0.122468
867 1 0.826343 0.141148 0.125183
871 1 0.873171 0.145512 0.121966
952 1 0.844382 0.16495 0.124567
875 1 0.929133 0.141513 0.121397
956 1 0.911738 0.166894 0.123355
879 1 0.97854 0.14266 0.123529
884 1 0.00384212 0.167702 0.126304
888 1 0.0537991 0.1675 0.127044
883 1 0.025039 0.191184 0.122738
887 1 0.074279 0.1903 0.127287
891 1 0.12359 0.193509 0.119573
895 1 0.179905 0.193702 0.118703
899 1 0.22765 0.193137 0.124225
900 1 0.19839 0.165163 0.120804
903 1 0.275441 0.192099 0.125249
904 1 0.255375 0.165187 0.1232
908 1 0.30694 0.167179 0.124359
907 1 0.328049 0.189609 0.120523
911 1 0.37831 0.194597 0.122598
915 1 0.439431 0.191355 0.122238
920 1 0.45871 0.165414 0.125256
919 1 0.484262 0.193297 0.125089
923 1 0.528157 0.189515 0.119669
928 1 0.546668 0.167961 0.126986
927 1 0.580054 0.192036 0.123945
931 1 0.629417 0.18805 0.127158
936 1 0.651294 0.165623 0.122898
935 1 0.678975 0.190319 0.127005
939 1 0.730227 0.198388 0.123536
944 1 0.743266 0.171452 0.124832
943 1 0.774764 0.196008 0.123116
947 1 0.823788 0.188721 0.120157
951 1 0.870937 0.188249 0.123203
955 1 0.928152 0.190728 0.122967
959 1 0.977497 0.191516 0.120943
960 1 0.956515 0.166697 0.124988
962 1 0.0244757 0.0255499 0.148352
968 1 0.0566569 0.0180085 0.174789
964 1 0.00716232 0.016737 0.176046
149 1 0.853662 0.0476211 0.00300609