ITEM: TIMESTEP
3000
ITEM: NUMBER OF ATOMS
32000
ITEM: BOX BOUNDS pp pp pp
-1.1994214463466335e+00 7.3799421446346571e+01
-1.1994214463466335e+00 7.3799421446346571e+01
-1.1994214463466335e+00 7.3799421446346571e+01
ITEM: ATOMS id type xs ys zs
4 1 0.997203 0.0200938 0.0252974
1637 1 0.444553 0.00145153 0.103973
8 1 0.0466589 0.0250626 0.0272317
750 1 0.375258 0.475479 0.0011473
806 1 0.0737517 0.0267257 0.0478891
12 1 0.101298 0.0247616 0.0253961
17649 1 0.596319 0.499241 0.0970017
42 1 0.524251 0.0237966 0.00569141
16 1 0.152441 0.0324269 0.0324328
2435 1 0.421168 0.000442657 0.174501
71 1 0.874811 0.00103454 0.0219968
20 1 0.203324 0.0310574 0.0308213
814 1 0.178957 0.0297208 0.0550814
818 1 0.221354 0.0289239 0.0552278
102 1 0.272598 0.0784485 -3.22381e-05
24 1 0.245715 0.0301132 0.0297292
28 1 0.29519 0.0277949 0.0285019
3205 1 0.0526013 0.00255867 0.199739
16045 1 0.5478 0.496538 1.46139e-05
32 1 0.348314 0.0271945 0.0297732
193 1 0.39616 0.100898 0.00639564
50 1 0.625649 0.0292302 0.00105091
36 1 0.398031 0.0307552 0.0304585
861 1 0.747863 0.00200778 0.0554462
41 1 0.493295 0.00493671 0.00345002
40 1 0.441911 0.0267328 0.0302296
181 1 0.245735 0.103343 0.00067107
573 1 0.14784 0.346274 0.00115548
233 1 0.895293 0.100186 0.00243834
44 1 0.496544 0.0264788 0.0278517
218 1 0.726998 0.127936 0.00210154
17671 1 0.878049 0.496708 0.123355
48 1 0.548778 0.0278894 0.0253552
2407 1 0.0758046 0.000951475 0.174548
17619 1 0.227512 0.497514 0.121867
638 1 0.974426 0.379627 0.00352758
52 1 0.597823 0.0279452 0.0269915
65 1 0.79684 0.00105106 0.00359643
56 1 0.653233 0.02639 0.0245648
60 1 0.703559 0.0281683 0.0209528
438 1 0.471448 0.275525 0.000483044
843 1 0.525623 0.00566898 0.0742928
64 1 0.748622 0.0252813 0.0253666
1653 1 0.650531 0.00493735 0.100585
2429 1 0.346654 0.00155044 0.148862
862 1 0.773241 0.0255508 0.0527073
110 1 0.375076 0.0774642 0.00212856
1647 1 0.575764 7.4335e-05 0.125395
68 1 0.800023 0.0223533 0.0263835
349 1 0.349967 0.197131 0.00568446
72 1 0.845313 0.027657 0.024872
76 1 0.897059 0.0233817 0.0248805
870 1 0.873605 0.02295 0.04556
80 1 0.946053 0.0220507 0.0249618
878 1 0.972845 0.0233251 0.0490376
557 1 0.944104 0.300009 0.00108028
83 1 0.0215335 0.0483809 0.0227836
882 1 0.0205329 0.0731971 0.0422334
84 1 0.999018 0.0725786 0.0204849
18457 1 0.700676 0.498664 0.147167
87 1 0.0726326 0.0484216 0.0221912
88 1 0.047249 0.0701793 0.0259472
886 1 0.0694868 0.0742642 0.0457992
389 1 0.842731 0.202146 0.00243833
92 1 0.0949955 0.0776159 0.0197821
889 1 0.0986373 0.049681 0.0470759
890 1 0.119153 0.0732779 0.0459806
91 1 0.124374 0.0512968 0.0223148
96 1 0.147874 0.0772395 0.0247539
893 1 0.152935 0.0581232 0.0537735
210 1 0.625894 0.122897 0.000952139
95 1 0.178497 0.0538224 0.0344688
100 1 0.196482 0.0820156 0.0249918
897 1 0.20244 0.0560694 0.0566688
16879 1 0.978272 0.498255 0.07216
99 1 0.226597 0.0591062 0.0319288
104 1 0.247048 0.0819264 0.0272895
103 1 0.269157 0.0525566 0.0299344
902 1 0.275396 0.0774402 0.0520107
229 1 0.847355 0.0975694 0.00147061
19 1 0.223153 0.00901156 0.0274969
305 1 0.801998 0.147829 0.00203959
107 1 0.325055 0.0504702 0.031369
108 1 0.296531 0.0774634 0.0241755
112 1 0.350192 0.0745594 0.0263998
758 1 0.477474 0.481382 0.00310731
10 1 0.127724 0.0246336 0.00115504
111 1 0.372652 0.0487471 0.0249947
116 1 0.394897 0.0765927 0.028545
115 1 0.423237 0.0507097 0.0248823
120 1 0.448118 0.0784922 0.0247384
119 1 0.471065 0.0504034 0.027182
2467 1 0.823399 0.000699152 0.171795
124 1 0.496202 0.074058 0.0245482
123 1 0.5247 0.0510854 0.0279279
2439 1 0.472934 0.00103949 0.181327
127 1 0.574596 0.0542612 0.0244688
128 1 0.545316 0.0769945 0.0189842
926 1 0.570492 0.0777905 0.0521897
626 1 0.826552 0.373505 0.000510709
132 1 0.595027 0.0798682 0.0294628
929 1 0.595077 0.0518913 0.0494842
131 1 0.621805 0.0520861 0.0290725
1629 1 0.345523 0.0038864 0.103201
136 1 0.65543 0.0724438 0.0275453
19265 1 0.796421 0.498996 0.193726
135 1 0.679342 0.0497889 0.0227491
140 1 0.706244 0.074592 0.0221062
19241 1 0.499065 0.498955 0.196963
266 1 0.32494 0.174225 0.00192498
139 1 0.726908 0.0492911 0.0216785
144 1 0.74822 0.0756994 0.0231895
18463 1 0.77629 0.499194 0.170768
143 1 0.773654 0.0459464 0.0253144
18475 1 0.92957 0.49602 0.175795
16821 1 0.243801 0.497511 0.0493157
147 1 0.823207 0.0491111 0.0250181
148 1 0.796934 0.0703571 0.0248727
486 1 0.0703295 0.329174 0.000618001
35 1 0.419901 0.0046096 0.0265286
151 1 0.874102 0.0464961 0.0257591
152 1 0.848558 0.0695446 0.0269739
835 1 0.421671 0.00316991 0.0785799
156 1 0.899424 0.0699058 0.0215399
149 1 0.850768 0.046806 0.000223387
950 1 0.877739 0.0729448 0.0488663
953 1 0.896567 0.0474969 0.0516613
155 1 0.923626 0.0514312 0.0226067
160 1 0.951465 0.0790975 0.0206214
159 1 0.971773 0.0489816 0.0240658
163 1 0.0207474 0.0963065 0.0197062
1673 1 0.899993 0.00012987 0.101633
1641 1 0.502738 0.000348467 0.102039
167 1 0.0727733 0.104844 0.0302048
965 1 0.045737 0.0940244 0.0490223
17 1 0.195266 0.01078 0.00375233
839 1 0.472557 0.00176633 0.0768682
969 1 0.0985074 0.102944 0.0511397
171 1 0.125859 0.100432 0.0268438
18459 1 0.724217 0.50002 0.165628
970 1 0.125768 0.124991 0.052613
175 1 0.168083 0.102832 0.0242709
1645 1 0.546535 0.00299212 0.100029
977 1 0.19972 0.107992 0.0489975
179 1 0.224866 0.105642 0.0260838
183 1 0.269795 0.104707 0.0257107
981 1 0.248887 0.101374 0.0526095
982 1 0.2734 0.126272 0.0509816
18429 1 0.353009 0.499203 0.14783
187 1 0.319436 0.100205 0.0254056
257 1 0.201692 0.153291 0.00257353
985 1 0.295658 0.102745 0.051197
642 1 0.0276715 0.426766 0.00505688
446 1 0.577775 0.272956 0.00123156
989 1 0.348201 0.0994648 0.0538195
191 1 0.372856 0.101378 0.0284328
196 1 0.394245 0.129826 0.0290246
993 1 0.398463 0.10138 0.0501346
18461 1 0.749139 0.499657 0.146626
195 1 0.425151 0.100735 0.0277128
200 1 0.449432 0.125045 0.0272952
773 1 0.648208 0.451079 0.0021646
199 1 0.473957 0.101318 0.0259033
998 1 0.475805 0.123554 0.0539256
21 1 0.247494 0.00511224 0.00564895
203 1 0.52333 0.104282 0.0233655
207 1 0.570528 0.0999185 0.023388
208 1 0.549262 0.125497 0.0199922
18453 1 0.649455 0.499855 0.14769
212 1 0.600157 0.118346 0.0267179
17655 1 0.669967 0.498093 0.118546
211 1 0.628792 0.0966948 0.0275528
216 1 0.647595 0.121436 0.0288987
402 1 0.0256902 0.274271 0.000106462
215 1 0.675135 0.0983405 0.0272853
220 1 0.699696 0.124849 0.0257445
219 1 0.727342 0.104324 0.0258824
224 1 0.753409 0.123067 0.027587
433 1 0.398926 0.249227 0.000433844
223 1 0.775099 0.0944456 0.029483
18419 1 0.225407 0.499501 0.181359
227 1 0.822202 0.0925918 0.0278241
228 1 0.796765 0.119172 0.0246368
1025 1 0.797144 0.0971119 0.0528219
785 1 0.796605 0.452037 0.00172912
231 1 0.872453 0.10091 0.0232771
1033 1 0.897847 0.100839 0.0452418
236 1 0.902138 0.12762 0.0220929
235 1 0.925704 0.101179 0.022261
240 1 0.949344 0.127569 0.0221682
1037 1 0.950308 0.101854 0.0497376
1657 1 0.697663 0.00482887 0.0980996
239 1 0.973045 0.102224 0.0275185
961 1 0.000845701 0.100046 0.0503779
1038 1 0.972476 0.126869 0.04857
962 1 0.0276785 0.120291 0.0459064
164 1 0.998868 0.122829 0.0263122
243 1 0.0230381 0.151664 0.0229149
17657 1 0.698936 0.499078 0.0974579
168 1 0.0490825 0.123144 0.0217422
247 1 0.0714057 0.150088 0.0235844
966 1 0.0706346 0.126557 0.0516598
577 1 0.202473 0.347316 0.0013556
172 1 0.101717 0.126265 0.0274593
1049 1 0.0999427 0.150727 0.0522602
251 1 0.127222 0.154224 0.0248923
176 1 0.148738 0.129015 0.0236947
417 1 0.198443 0.247622 0.00059335
1053 1 0.149295 0.149471 0.0503109
18 1 0.222364 0.0294723 0.00303356
180 1 0.199498 0.129692 0.0251786
255 1 0.173111 0.153107 0.0283817
570 1 0.124714 0.373213 0.000255681
974 1 0.171669 0.127148 0.0586346
1057 1 0.196306 0.149779 0.0500928
259 1 0.224031 0.155629 0.0335824
978 1 0.225204 0.129268 0.0508815
184 1 0.248242 0.129905 0.026807
263 1 0.275606 0.148395 0.0267571
1061 1 0.252438 0.151966 0.0555478
188 1 0.298339 0.125648 0.0240423
986 1 0.320466 0.121531 0.0543386
267 1 0.322044 0.151113 0.024957
192 1 0.343719 0.122173 0.0269453
1069 1 0.34762 0.146642 0.0504598
774 1 0.66819 0.475694 0.00063401
271 1 0.37207 0.153456 0.0308815
1073 1 0.399893 0.149689 0.0590524
275 1 0.420484 0.150912 0.0274247
1077 1 0.446359 0.14816 0.0507704
279 1 0.471629 0.151444 0.0259791
204 1 0.498399 0.124418 0.0254387
1081 1 0.497529 0.147867 0.0505078
283 1 0.523461 0.147211 0.0213535
827 1 0.322637 0.00287963 0.0784691
287 1 0.570493 0.149061 0.0245791
505 1 0.300461 0.301048 0.000836215
745 1 0.298669 0.452726 0.00178689
291 1 0.621757 0.146827 0.0262424
14 1 0.17203 0.0315609 0.00187875
295 1 0.676327 0.150617 0.0239838
1643 1 0.5246 0.00692097 0.12891
1097 1 0.699717 0.154553 0.0514161
299 1 0.729475 0.14815 0.0331432
297 1 0.699967 0.153957 0.000259133
303 1 0.778112 0.14903 0.0242467
307 1 0.821696 0.150336 0.0242144
39 1 0.469985 0.00435968 0.0276201
232 1 0.847218 0.123657 0.0275322
311 1 0.871032 0.150404 0.0241158
1030 1 0.874575 0.124827 0.0474887
353 1 0.402954 0.198 0.00195087
1109 1 0.848478 0.146617 0.0517161
45 1 0.549593 0.00411022 0.000337603
847 1 0.568537 0.00377983 0.0755895
1113 1 0.900189 0.154377 0.0500167
315 1 0.922971 0.150969 0.0224987
1117 1 0.946388 0.152701 0.0548621
1034 1 0.920688 0.128393 0.0485807
841 1 0.498133 0.00182478 0.0469634
319 1 0.980256 0.150293 0.0284109
466 1 0.82393 0.275363 0.000829881
244 1 0.999339 0.178914 0.0247099
323 1 0.0238801 0.201949 0.0251801
248 1 0.0476106 0.175781 0.0208006
327 1 0.0700461 0.199442 0.027207
493 1 0.148691 0.293393 0.00475908
717 1 0.947496 0.398626 0.00102492
252 1 0.0993737 0.176005 0.0272117
256 1 0.151005 0.178858 0.0238868
331 1 0.125355 0.201115 0.023339
1050 1 0.123094 0.17866 0.0505805
1133 1 0.148592 0.20092 0.0448785
549 1 0.85454 0.301328 0.00213178
789 1 0.850968 0.448243 0.00108151
260 1 0.197481 0.177329 0.0309842
335 1 0.177402 0.203094 0.0285827
1137 1 0.19994 0.201292 0.0545202
2471 1 0.87453 0.00355102 0.172858
873 1 0.897443 1.64359e-05 0.0476306
339 1 0.223389 0.202986 0.0306579
1058 1 0.223174 0.178546 0.0544904
697 1 0.701715 0.39757 0.000893295
264 1 0.25027 0.177149 0.0281365
343 1 0.272709 0.198683 0.0283062
1141 1 0.250806 0.198063 0.0565155
268 1 0.299242 0.174189 0.0250462
347 1 0.325271 0.195568 0.0273398
1145 1 0.295482 0.200247 0.0533047
1066 1 0.321474 0.17633 0.0554636
809 1 0.0981976 0.00343431 0.0473807
272 1 0.349566 0.17603 0.0314452
1149 1 0.349354 0.202774 0.0512254
351 1 0.374688 0.202167 0.0271333
1070 1 0.373872 0.17374 0.0566372
276 1 0.399418 0.174326 0.0278051
1153 1 0.393941 0.199367 0.0525737
385 1 0.800021 0.196458 0.00151366
280 1 0.446058 0.174364 0.0292902
355 1 0.427874 0.201489 0.0280354
1074 1 0.42255 0.182914 0.0534711
1157 1 0.449748 0.202936 0.0525793
359 1 0.471114 0.198437 0.0263038
1078 1 0.471317 0.176107 0.0500497
586 1 0.323464 0.371677 0.00163595
1161 1 0.4961 0.200043 0.0503595
284 1 0.494643 0.176759 0.0253993
363 1 0.518679 0.200135 0.0271099
1082 1 0.522556 0.174287 0.0484983
288 1 0.548931 0.176677 0.0240335
367 1 0.574292 0.202343 0.0246566
1165 1 0.549279 0.19965 0.049379
221 1 0.750405 0.101968 0.00037753
18401 1 0.00186368 0.499528 0.149875
2415 1 0.172203 0.00219029 0.183806
292 1 0.595373 0.172851 0.0238738
17679 1 0.978139 0.495218 0.123192
296 1 0.646158 0.17346 0.0237754
371 1 0.626314 0.200257 0.0278524
1173 1 0.650592 0.200163 0.0498654
300 1 0.701704 0.175355 0.0246839
375 1 0.671229 0.194697 0.0213711
710 1 0.876376 0.424853 0.00100051
273 1 0.397185 0.154417 0.0032054
817 1 0.19919 0.00741301 0.0527458
379 1 0.727691 0.201339 0.026033
304 1 0.749003 0.174491 0.0247207
134 1 0.680095 0.0757375 0.000582515
383 1 0.775744 0.19527 0.0262438
875 1 0.924952 0.000524079 0.0736894
308 1 0.797754 0.171784 0.0284752
387 1 0.820445 0.194269 0.0296069
262 1 0.273757 0.175718 0.00228002
742 1 0.271715 0.473574 0.00233434
312 1 0.845724 0.17114 0.0299584
391 1 0.869912 0.200912 0.0284598
316 1 0.893446 0.179803 0.0275041
16855 1 0.672987 0.497442 0.0701586
320 1 0.950054 0.168744 0.0276945
395 1 0.922077 0.199914 0.0247861
1197 1 0.946403 0.200223 0.0472289
1114 1 0.923678 0.178303 0.0444205
382 1 0.775537 0.224885 0.00556055
399 1 0.973212 0.203092 0.0204608
403 1 0.0287893 0.252088 0.0261635
370 1 0.623049 0.2262 0.00154916
553 1 0.894834 0.299415 0.0010751
328 1 0.0492061 0.225157 0.0253148
332 1 0.0970918 0.223919 0.0250401
1625 1 0.290333 0.00208069 0.100124
1130 1 0.123279 0.222575 0.0495001
1209 1 0.0972034 0.248654 0.0520356
336 1 0.147138 0.226007 0.0275029
411 1 0.122589 0.251611 0.0248502
340 1 0.198613 0.22734 0.0302749
585 1 0.297661 0.349072 0.00392233
1134 1 0.172955 0.223514 0.0532626
344 1 0.249592 0.22555 0.0284054
1142 1 0.273281 0.225026 0.0534013
348 1 0.300849 0.227204 0.031057
170 1 0.122146 0.125483 0.000817711
352 1 0.343505 0.22539 0.0307634
356 1 0.397046 0.225837 0.0286494
2449 1 0.597206 0.000530629 0.15095
1150 1 0.370803 0.227321 0.0526481
360 1 0.44949 0.22431 0.0282049
435 1 0.420292 0.24903 0.0272544
1154 1 0.421719 0.224906 0.049943
1158 1 0.477271 0.227055 0.0499194
439 1 0.472885 0.250326 0.023979
364 1 0.496122 0.226268 0.0262767
1162 1 0.521114 0.222542 0.0519077
1241 1 0.498413 0.253958 0.0508177
368 1 0.551556 0.22589 0.0290362
447 1 0.569296 0.249808 0.0287954
1245 1 0.547269 0.249785 0.0550577
16817 1 0.197859 0.499786 0.0465879
372 1 0.598301 0.228086 0.025517
189 1 0.34886 0.0984744 0.00250693
1170 1 0.62007 0.226571 0.0491897
376 1 0.645408 0.226417 0.0249356
451 1 0.626904 0.249882 0.0253381
629 1 0.848914 0.352978 0.00345065
380 1 0.696828 0.220372 0.0220287
1635 1 0.422516 0.00103379 0.128643
17605 1 0.0518817 0.496529 0.0977478
384 1 0.751285 0.225967 0.0274664
837 1 0.444083 0.00314193 0.0571576
1178 1 0.726921 0.221978 0.0486622
29 1 0.343419 0.00415348 0.000335908
463 1 0.776622 0.253214 0.0254016
829 1 0.344313 0.00236186 0.0526893
388 1 0.800449 0.224543 0.0235411
502 1 0.271373 0.324814 0.00298389
1186 1 0.826978 0.221617 0.0524064
325 1 0.0481696 0.203587 0.00117695
392 1 0.84668 0.227056 0.0238852
396 1 0.895045 0.22512 0.0265788
1273 1 0.90335 0.253074 0.0498396
400 1 0.949352 0.224267 0.0225374
1194 1 0.919775 0.221679 0.04691
18433 1 0.392715 0.495172 0.151398
324 1 0.999948 0.222691 0.0281032
114 1 0.423046 0.0785255 0.00367305
404 1 0.99683 0.278826 0.0246304
1201 1 0.99742 0.247135 0.0498188
1202 1 0.0246745 0.278891 0.0527983
330 1 0.121356 0.22529 0.00543022
407 1 0.0762847 0.251393 0.0266979
408 1 0.0502288 0.27533 0.0225972
1205 1 0.0521146 0.254017 0.0487902
412 1 0.0963859 0.278835 0.024676
416 1 0.146301 0.27324 0.0266944
1210 1 0.12075 0.274663 0.0488674
415 1 0.16861 0.251995 0.0245347
420 1 0.196459 0.271324 0.0270014
1214 1 0.171984 0.273128 0.0538308
1217 1 0.199229 0.250664 0.0517937
93 1 0.149397 0.0490842 0.00344928
419 1 0.226709 0.246406 0.0307343
1218 1 0.220895 0.277141 0.0515622
423 1 0.273039 0.251297 0.0260577
424 1 0.248169 0.274373 0.0271096
1222 1 0.27428 0.27755 0.0507883
85 1 0.0474454 0.0459141 0.00064704
427 1 0.323988 0.25027 0.0230781
428 1 0.300851 0.271151 0.0225889
1225 1 0.302074 0.251144 0.0537646
432 1 0.344105 0.27028 0.0235723
309 1 0.842214 0.147559 0.000711799
381 1 0.751209 0.203625 0.00240834
431 1 0.369025 0.247674 0.0249615
436 1 0.393791 0.270554 0.029749
1237 1 0.448633 0.250468 0.0519385
440 1 0.447052 0.275919 0.0252501
1234 1 0.424961 0.272617 0.0503065
1238 1 0.469005 0.273295 0.0513928
444 1 0.498552 0.274422 0.0215628
443 1 0.520943 0.249922 0.022681
1242 1 0.524601 0.27601 0.0477188
448 1 0.546536 0.271396 0.0202657
1246 1 0.570136 0.276149 0.0485013
452 1 0.598205 0.277916 0.0245127
456 1 0.648992 0.274399 0.0298281
78 1 0.971535 0.0212799 -8.13344e-07
455 1 0.675429 0.249948 0.0296249
460 1 0.694327 0.275732 0.0287889
1254 1 0.67754 0.270915 0.0546291
459 1 0.721508 0.250848 0.0206512
464 1 0.750276 0.271988 0.0293819
468 1 0.794711 0.280861 0.0246273
173 1 0.143962 0.1015 0.000964752
467 1 0.821473 0.251955 0.0248115
226 1 0.825041 0.118355 0.00286181
472 1 0.84724 0.276743 0.027052
471 1 0.870204 0.25225 0.0283274
1270 1 0.877051 0.275597 0.0523905
476 1 0.89713 0.276172 0.0252077
1621 1 0.251629 0.00656582 0.10304
475 1 0.926043 0.245537 0.0266328
480 1 0.953173 0.277089 0.0253547
1274 1 0.927856 0.27225 0.0463522
578 1 0.222335 0.370536 0.00010982
479 1 0.976639 0.253112 0.0245073
1278 1 0.97563 0.283946 0.0481142
277 1 0.44876 0.145742 0.00314362
350 1 0.376435 0.224787 0.00291517
483 1 0.0247451 0.302454 0.0178378
1282 1 0.0227144 0.331754 0.0443205
1281 1 0.0042354 0.303036 0.0451263
487 1 0.071992 0.303701 0.022048
488 1 0.0457786 0.321972 0.0224313
492 1 0.0977566 0.324201 0.0214418
491 1 0.123792 0.296706 0.0269944
1289 1 0.0982812 0.305643 0.0484527
1290 1 0.128347 0.330281 0.0482992
496 1 0.150935 0.32462 0.0272574
1293 1 0.149813 0.297691 0.0526209
495 1 0.174739 0.298201 0.0296556
500 1 0.198289 0.323009 0.0260149
499 1 0.22295 0.295833 0.0282277
1298 1 0.223786 0.323263 0.0485334
793 1 0.901494 0.453047 0.000610973
503 1 0.274614 0.299923 0.0267363
504 1 0.246519 0.328564 0.0291605
1301 1 0.248851 0.298047 0.0522038
1302 1 0.275266 0.330148 0.0482165
2445 1 0.551433 0.00339038 0.151687
613 1 0.64707 0.356171 0.000368758
405 1 0.0508458 0.249959 0.000589292
507 1 0.329047 0.302474 0.0280726
508 1 0.301141 0.325748 0.0278127
1305 1 0.300697 0.296038 0.0485792
1306 1 0.32516 0.320899 0.0494474
512 1 0.351458 0.325842 0.0242818
511 1 0.373117 0.300244 0.0253579
1655 1 0.676147 0.00161341 0.12452
2437 1 0.449111 0.00125368 0.153902
81 1 0.994192 0.0447502 0.00164707
516 1 0.396722 0.32559 0.0259375
1313 1 0.394964 0.304015 0.0463463
515 1 0.418694 0.29738 0.0268071
520 1 0.449895 0.326888 0.0230833
1314 1 0.427754 0.323233 0.0551616
1317 1 0.450856 0.302275 0.0473712
706 1 0.825923 0.42421 0.00358776
17653 1 0.647873 0.499719 0.0968805
18431 1 0.374737 0.496438 0.174489
519 1 0.472974 0.303147 0.0210675
1318 1 0.472051 0.32886 0.0487306
523 1 0.521829 0.305081 0.0218442
524 1 0.49738 0.321355 0.0239037
527 1 0.569484 0.298549 0.0249651
528 1 0.547439 0.322723 0.0282805
1325 1 0.549452 0.299764 0.0534326
1326 1 0.573586 0.324182 0.0512328
213 1 0.652063 0.0985938 0.00301354
532 1 0.599143 0.322277 0.0239616
1329 1 0.596051 0.300777 0.04965
393 1 0.899785 0.200375 0.00200741
2473 1 0.901645 0.00333311 0.144922
531 1 0.624122 0.298401 0.0280195
536 1 0.648347 0.329329 0.0208774
430 1 0.371597 0.273233 0.00164606
1330 1 0.626529 0.325637 0.0472852
535 1 0.675709 0.301906 0.0262709
540 1 0.698419 0.33315 0.0288145
1334 1 0.677412 0.322683 0.0510488
1337 1 0.70114 0.302621 0.0529167
16833 1 0.402371 0.497532 0.0486678
539 1 0.723306 0.301079 0.0257196
1338 1 0.723712 0.326157 0.0495909
101 1 0.249218 0.0550659 0.00351694
544 1 0.744379 0.323871 0.0260761
543 1 0.773853 0.30469 0.0254353
465 1 0.794973 0.250844 0.00010026
1341 1 0.742121 0.300909 0.0537454
1633 1 0.399299 0.00459221 0.103209
547 1 0.826437 0.301569 0.0255397
548 1 0.794993 0.326542 0.0332103
1346 1 0.820714 0.328974 0.0510042
16819 1 0.219795 0.499989 0.0717392
552 1 0.849863 0.329413 0.0257069
551 1 0.873679 0.304184 0.0270379
1349 1 0.849269 0.30197 0.051052
749 1 0.352996 0.450077 0.00122921
2461 1 0.748651 0.00030975 0.148856
556 1 0.901041 0.327025 0.0198315
1353 1 0.893715 0.301142 0.0484659
374 1 0.670335 0.231486 0.00219174
555 1 0.925603 0.298446 0.0267478
560 1 0.949683 0.327881 0.0261981
1357 1 0.950038 0.301122 0.0482237
1354 1 0.920707 0.321466 0.0496358
484 1 0.995768 0.327806 0.0199807
559 1 0.970703 0.305138 0.0216885
1358 1 0.9781 0.325923 0.0470727
563 1 0.0221695 0.355671 0.0253213
1361 1 0.996862 0.350947 0.0505374
567 1 0.0722692 0.348661 0.0228989
568 1 0.0499565 0.379031 0.0205735
1365 1 0.0468901 0.354224 0.044092
1366 1 0.0748552 0.372659 0.0473678
571 1 0.122781 0.348875 0.0230947
572 1 0.0995387 0.373209 0.0276793
1369 1 0.0975818 0.349824 0.0499692
576 1 0.149495 0.375576 0.0214701
1373 1 0.15661 0.351805 0.0487063
1370 1 0.126611 0.373772 0.0479752
575 1 0.175193 0.347501 0.0251482
580 1 0.198445 0.37391 0.0232432
1374 1 0.177223 0.377185 0.0458453
579 1 0.223852 0.348674 0.0249252
584 1 0.250486 0.374293 0.0252939
1378 1 0.219861 0.374275 0.0477629
583 1 0.267925 0.34952 0.0224147
1382 1 0.274157 0.373991 0.0515252
587 1 0.325584 0.350076 0.0285606
1385 1 0.300438 0.352871 0.0543679
591 1 0.375444 0.355829 0.0216981
1390 1 0.37321 0.375031 0.0492689
595 1 0.423267 0.350485 0.0245427
1397 1 0.44878 0.354383 0.0471348
414 1 0.178083 0.273712 0.00132855
599 1 0.473701 0.348949 0.0257913
1398 1 0.476168 0.373096 0.0470552
603 1 0.521606 0.345608 0.0273097
1401 1 0.499506 0.349841 0.0486439
604 1 0.501344 0.378374 0.0224081
3998 1 0.974622 0.473576 0.198542
607 1 0.578747 0.346852 0.0257799
1405 1 0.550056 0.349458 0.0486924
1406 1 0.576792 0.371596 0.0504909
608 1 0.546084 0.371798 0.0245673
611 1 0.620816 0.3498 0.0225263
612 1 0.591668 0.376041 0.0240119
616 1 0.648661 0.376336 0.0239389
1413 1 0.652481 0.353194 0.051332
3658 1 0.731169 0.273851 0.198075
615 1 0.675438 0.349528 0.0223681
620 1 0.697034 0.37416 0.0240855
1417 1 0.697763 0.354355 0.0537276
619 1 0.719805 0.351412 0.0258994
1421 1 0.747383 0.351925 0.0482265
94 1 0.173521 0.0755739 0.00133961
623 1 0.771454 0.347655 0.0242652
17627 1 0.325249 0.495273 0.128788
627 1 0.824674 0.350878 0.0253122
1426 1 0.818224 0.372543 0.0493617
634 1 0.924308 0.371267 0.00516741
632 1 0.844949 0.376407 0.0289654
631 1 0.87482 0.352426 0.0286866
811 1 0.120238 0.00643046 0.0714867
1433 1 0.90234 0.351573 0.0504436
118 1 0.471589 0.0733323 0.00373451
635 1 0.925278 0.347283 0.0273735
640 1 0.951952 0.377909 0.0293729
1437 1 0.952451 0.352513 0.0506019
639 1 0.976007 0.354167 0.0208616
564 1 0.999922 0.379079 0.0246378
1438 1 0.977318 0.379071 0.0522251
1362 1 0.026015 0.377097 0.0488635
643 1 0.0257921 0.399718 0.025537
1441 1 0.0033769 0.402606 0.050287
647 1 0.0759921 0.404088 0.0231336
1445 1 0.0506556 0.399276 0.0484153
651 1 0.123188 0.401792 0.0260265
1449 1 0.0995685 0.400547 0.0478832
1611 1 0.123712 0.00232611 0.123782
16877 1 0.952263 0.498867 0.0499348
1453 1 0.148644 0.402049 0.0483855
655 1 0.174797 0.401703 0.0235603
659 1 0.227339 0.398456 0.0230391
663 1 0.273811 0.401578 0.0261286
17675 1 0.927577 0.49812 0.124288
588 1 0.298591 0.373037 0.0288175
667 1 0.324218 0.39631 0.0265093
849 1 0.593697 0.00410737 0.0528573
1465 1 0.302506 0.397819 0.0487795
3861 1 0.249164 0.402907 0.199635
592 1 0.348073 0.372783 0.0296274
596 1 0.401813 0.377155 0.0228925
671 1 0.37552 0.397408 0.0240611
3202 1 0.0228176 0.02893 0.195779
600 1 0.449999 0.376055 0.0242465
675 1 0.42537 0.398852 0.0254087
1477 1 0.452031 0.400372 0.0462645
679 1 0.477946 0.399474 0.0229887
386 1 0.815981 0.225193 0.000825009
1481 1 0.500752 0.402119 0.0490957
683 1 0.524998 0.397699 0.0265212
1402 1 0.5242 0.373859 0.0500353
687 1 0.568883 0.398 0.023652
691 1 0.624118 0.396287 0.0249512
357 1 0.447779 0.196275 0.00141447
695 1 0.675477 0.402888 0.0227125
1497 1 0.700519 0.403547 0.0447989
624 1 0.746403 0.378318 0.0237832
699 1 0.724978 0.40356 0.0194753
703 1 0.772864 0.402539 0.0194738
1422 1 0.773441 0.377491 0.0459392
628 1 0.794599 0.373758 0.0226276
707 1 0.819231 0.402165 0.0247077
1505 1 0.795317 0.403806 0.0483133
1509 1 0.848721 0.400568 0.0500384
711 1 0.874846 0.3984 0.0245422
636 1 0.901163 0.373571 0.0261645
1513 1 0.900845 0.399533 0.0502569
1430 1 0.875396 0.374711 0.0551989
715 1 0.924088 0.400127 0.0241998
1434 1 0.924247 0.379192 0.0523901
1517 1 0.948008 0.40435 0.0497342
719 1 0.979558 0.40276 0.0279994
723 1 0.0242339 0.453683 0.0251954
644 1 0.000648019 0.427086 0.0238867
1442 1 0.0274263 0.427365 0.0467846
1521 1 0.000914245 0.44984 0.0475391
648 1 0.0514905 0.425557 0.0277423
727 1 0.0752714 0.450813 0.0244373
1525 1 0.0517332 0.456428 0.0475579
652 1 0.104868 0.427947 0.0200826
731 1 0.125649 0.451122 0.0207285
1529 1 0.100746 0.456833 0.0458086
1450 1 0.127166 0.426242 0.0533599
656 1 0.146124 0.422755 0.0235642
17677 1 0.948639 0.498452 0.0966513
660 1 0.203851 0.423908 0.0270966
735 1 0.175286 0.446813 0.0194062
1454 1 0.175605 0.424351 0.0464595
1537 1 0.20233 0.447199 0.0482642
678 1 0.475857 0.425553 0.00164594
739 1 0.226571 0.451478 0.0294688
562 1 0.0258899 0.375369 0.00115579
537 1 0.698708 0.302437 0.00403484
398 1 0.979377 0.228265 0.00118224
664 1 0.249896 0.426058 0.0270399
743 1 0.271709 0.446738 0.0289834
668 1 0.302679 0.424506 0.0272264
747 1 0.324896 0.449352 0.020556
1466 1 0.329457 0.420665 0.0487733
214 1 0.674835 0.121721 0.00380585
672 1 0.352227 0.425086 0.0208624
1549 1 0.34857 0.448652 0.0448809
676 1 0.399604 0.423811 0.0221621
751 1 0.379775 0.450255 0.0247062
1553 1 0.400727 0.447796 0.0484012
401 1 0.00284517 0.251642 0.00163679
589 1 0.347715 0.350791 0.000665476
680 1 0.450765 0.423309 0.0212403
755 1 0.425713 0.447333 0.0257704
1557 1 0.452364 0.452476 0.0477719
3289 1 0.0987344 0.0468961 0.196712
759 1 0.481891 0.448245 0.024237
49 1 0.597937 0.0020059 0.00241811
684 1 0.505644 0.426023 0.023674
763 1 0.520775 0.453693 0.0239374
1561 1 0.501353 0.445507 0.055308
688 1 0.552033 0.424482 0.0210882
767 1 0.570634 0.451204 0.0224617
1486 1 0.570894 0.42659 0.046472
1565 1 0.544463 0.450992 0.0475698
545 1 0.801045 0.306651 0.000923796
692 1 0.596526 0.424154 0.0220457
771 1 0.623137 0.450713 0.025874
1569 1 0.598134 0.447705 0.0435855
31 1 0.371431 0.000998704 0.029501
696 1 0.648852 0.422351 0.0251812
1573 1 0.645066 0.451311 0.0486445
700 1 0.699056 0.424258 0.0205062
775 1 0.677057 0.453907 0.021058
1494 1 0.67673 0.433325 0.0467098
1577 1 0.700803 0.450171 0.0443277
162 1 0.0217005 0.12778 0.0011316
779 1 0.728852 0.453735 0.0219178
1498 1 0.725377 0.427196 0.0451645
704 1 0.749992 0.426597 0.0201924
783 1 0.77532 0.451974 0.0252352
1502 1 0.772838 0.424291 0.0477754
708 1 0.797349 0.42389 0.0242918
787 1 0.822833 0.45374 0.0271133
1506 1 0.825923 0.423759 0.0481992
1585 1 0.800525 0.444361 0.0495481
712 1 0.851213 0.426115 0.0249824
1589 1 0.848853 0.450108 0.0494074
791 1 0.876657 0.451997 0.0227389
716 1 0.899912 0.425915 0.0233
1593 1 0.901865 0.452563 0.0475663
720 1 0.948941 0.424468 0.0265828
795 1 0.92808 0.447166 0.0242031
1514 1 0.925386 0.426397 0.0490302
1597 1 0.955664 0.448196 0.046644
799 1 0.98108 0.45488 0.0196116
1518 1 0.978121 0.422333 0.0505666
238 1 0.973128 0.128961 0.000386493
1522 1 0.0226199 0.476281 0.0452936
781 1 0.750502 0.452305 0.000122216
728 1 0.0463622 0.477656 0.0210175
732 1 0.100033 0.478756 0.0192163
725 1 0.0465162 0.452311 0.00225695
865 1 0.799702 0.00174108 0.0537186
736 1 0.151892 0.475646 0.0234045
1530 1 0.127644 0.476426 0.0456783
740 1 0.200036 0.47528 0.0201226
1534 1 0.176378 0.473948 0.0467728
390 1 0.872873 0.226097 0.000934319
421 1 0.250672 0.24983 0.00612015
681 1 0.501371 0.405008 0.000577717
744 1 0.250111 0.472748 0.0270929
461 1 0.752057 0.246464 0.00369902
819 1 0.223518 0.00202094 0.0785392
209 1 0.597156 0.0948815 0.00305916
748 1 0.298666 0.4772 0.027969
1546 1 0.32943 0.476138 0.0450283
17645 1 0.5468 0.49956 0.0977642
1613 1 0.14525 0.0013913 0.0985125
338 1 0.226681 0.228115 0.00361016
658 1 0.228306 0.425714 0.000999117
752 1 0.351702 0.476572 0.0233934
63 1 0.769487 0.00372431 0.0300796
756 1 0.398739 0.477153 0.0240818
1550 1 0.368769 0.477485 0.0509736
17663 1 0.771599 0.498012 0.125599
3786 1 0.329255 0.376343 0.197017
760 1 0.446231 0.475277 0.0224838
1554 1 0.426704 0.474164 0.0490076
601 1 0.497908 0.351428 0.000346811
1558 1 0.474566 0.474163 0.0470988
764 1 0.499896 0.481322 0.0269786
1562 1 0.521458 0.476827 0.0516886
206 1 0.575184 0.126662 0.000430779
768 1 0.545761 0.479536 0.0268035
1566 1 0.572969 0.476924 0.0470376
772 1 0.599225 0.476491 0.0255676
1570 1 0.623196 0.476246 0.0491738
776 1 0.641188 0.479915 0.0230457
1639 1 0.470157 0.00116634 0.125317
780 1 0.698783 0.477362 0.022687
194 1 0.422468 0.128853 0.0050665
89 1 0.101526 0.0470592 0.00271942
784 1 0.751805 0.477827 0.0219092
342 1 0.275175 0.22626 0.00396511
1607 1 0.0748425 0.00202822 0.121408
788 1 0.797058 0.476762 0.0264097
1586 1 0.822894 0.476961 0.0500737
1631 1 0.372466 0.00434098 0.124319
792 1 0.850346 0.47463 0.0243551
1590 1 0.875166 0.477231 0.048121
422 1 0.273251 0.279278 0.000513062
796 1 0.899364 0.478265 0.029999
662 1 0.274034 0.423308 0.00307263
800 1 0.949522 0.477496 0.0235917
1594 1 0.926587 0.47604 0.0498784
724 1 0.00423745 0.479619 0.0219823
1598 1 0.974942 0.477941 0.0468205
2475 1 0.928184 0.00276974 0.169719
802 1 0.0231297 0.0230883 0.0484011
804 1 0.995788 0.0230861 0.07816
30 1 0.37032 0.0299009 3.57083e-05
808 1 0.0460145 0.0224193 0.0760967
17659 1 0.724566 0.497412 0.123719
3901 1 0.754706 0.401872 0.19975
812 1 0.0941259 0.0280506 0.0752769
1610 1 0.123301 0.02873 0.0951341
561 1 0.998527 0.359047 0.0019209
810 1 0.124218 0.0333167 0.0532001
816 1 0.154995 0.0282906 0.078316
18403 1 0.0253276 0.496646 0.179786
820 1 0.199883 0.0287127 0.0836894
1614 1 0.171817 0.0285791 0.106538
2441 1 0.495263 0.00284917 0.151482
16023 1 0.271227 0.497534 0.0262123
1623 1 0.273365 0.00366142 0.125543
1618 1 0.22334 0.0315893 0.108358
822 1 0.270521 0.0320816 0.0542937
333 1 0.153592 0.202478 0.00194442
824 1 0.243659 0.0298421 0.0798596
1622 1 0.273163 0.0323422 0.106195
813 1 0.14825 0.00390073 0.0535842
826 1 0.322142 0.024779 0.0546731
828 1 0.294336 0.0320541 0.076568
1626 1 0.317298 0.0273938 0.100735
832 1 0.35104 0.030309 0.0706357
830 1 0.375173 0.0183633 0.052829
836 1 0.39912 0.0272555 0.0804167
834 1 0.420646 0.0265058 0.0533327
840 1 0.445809 0.0277078 0.080376
838 1 0.471846 0.0261665 0.0534895
842 1 0.528961 0.0260402 0.0485405
844 1 0.499199 0.0228343 0.0721137
846 1 0.569565 0.0263985 0.0487887
848 1 0.548741 0.0316118 0.077705
852 1 0.598364 0.0307612 0.0753595
850 1 0.620664 0.0249024 0.0529559
854 1 0.679584 0.0250792 0.0475467
856 1 0.651839 0.0230109 0.0717488
860 1 0.701705 0.0263729 0.0772766
38 1 0.469864 0.0303053 0.00349189
858 1 0.722928 0.0192872 0.0474977
864 1 0.748284 0.0234637 0.0802051
866 1 0.826778 0.0239685 0.0503977
868 1 0.800885 0.0242528 0.0788516